<?xml version="1.0" encoding="UTF-8"?>

<!-- generated on 2023-11-28 16:09:29 by Eclipse SUMO GUI Version 1.18.0
<configuration xmlns:xsi="http://www.w3.org/2001/XMLSchema-instance" xsi:noNamespaceSchemaLocation="http://sumo.dlr.de/xsd/sumoConfiguration.xsd">

    <input>
        <net-file value="C:\Program Files (x86)\Eclipse\Sumo\doc\tutorial\quickstart\data\quickstart.net.xml"/>
        <route-files value="C:\Program Files (x86)\Eclipse\Sumo\doc\tutorial\quickstart\data\quickstart.rou.xml"/>
    </input>

    <output>
        <tripinfo-output value="tripinfo.xml"/>
    </output>

    <time>
        <begin value="54000"/>
        <end value="54900"/>
    </time>

    <processing>
        <time-to-teleport value="-1"/>
    </processing>

    <traci_server>
        <remote-port value="60073"/>
    </traci_server>

    <gui_only>
        <quit-on-end value="true"/>
        <start value="true"/>
    </gui_only>

</configuration>
-->

<tripinfos xmlns:xsi="http://www.w3.org/2001/XMLSchema-instance" xsi:noNamespaceSchemaLocation="http://sumo.dlr.de/xsd/tripinfo_file.xsd">
    <tripinfo id="veh30" depart="54021.00" departLane="D6_0" departPos="5.10" departSpeed="0.00" departDelay="21.00" arrival="54281.00" arrivalLane="D3_0" arrivalPos="500.00" arrivalSpeed="15.94" duration="260.00" routeLength="3996.18" waitingTime="0.00" waitingCount="0" stopTime="0.00" timeLoss="15.02" rerouteNo="0" devices="tripinfo_veh30" vType="CarC" speedFactor="1.18" vaporized=""/>
    <tripinfo id="veh33" depart="54020.00" departLane="D8_0" departPos="5.10" departSpeed="0.00" departDelay="20.00" arrival="54281.00" arrivalLane="D1_0" arrivalPos="500.00" arrivalSpeed="15.89" duration="261.00" routeLength="3996.18" waitingTime="0.00" waitingCount="0" stopTime="0.00" timeLoss="14.67" rerouteNo="0" devices="tripinfo_veh33" vType="CarC" speedFactor="1.17" vaporized=""/>
    <tripinfo id="veh3" depart="54000.00" departLane="D4_0" departPos="5.10" departSpeed="0.00" departDelay="0.00" arrival="54282.00" arrivalLane="D5_0" arrivalPos="500.00" arrivalSpeed="14.63" duration="282.00" routeLength="3996.18" waitingTime="0.00" waitingCount="0" stopTime="0.00" timeLoss="16.05" rerouteNo="0" devices="tripinfo_veh3" vType="CarA" speedFactor="1.08" vaporized=""/>
    <tripinfo id="veh0" depart="54000.00" departLane="D2_0" departPos="5.10" departSpeed="0.00" departDelay="0.00" arrival="54289.00" arrivalLane="D7_0" arrivalPos="500.00" arrivalSpeed="13.78" duration="289.00" routeLength="3995.70" waitingTime="0.00" waitingCount="0" stopTime="0.00" timeLoss="16.77" rerouteNo="0" devices="tripinfo_veh0" vType="CarA" speedFactor="1.06" vaporized=""/>
    <tripinfo id="veh6" depart="54000.00" departLane="D6_0" departPos="5.10" departSpeed="0.00" departDelay="0.00" arrival="54293.00" arrivalLane="D3_0" arrivalPos="500.00" arrivalSpeed="13.25" duration="293.00" routeLength="3996.18" waitingTime="0.00" waitingCount="0" stopTime="0.00" timeLoss="17.90" rerouteNo="0" devices="tripinfo_veh6" vType="CarA" speedFactor="1.05" vaporized=""/>
    <tripinfo id="veh12" depart="54009.00" departLane="D2_0" departPos="7.60" departSpeed="0.00" departDelay="9.00" arrival="54299.00" arrivalLane="D7_0" arrivalPos="500.00" arrivalSpeed="13.66" duration="290.00" routeLength="3993.20" waitingTime="0.00" waitingCount="0" stopTime="0.00" timeLoss="14.86" rerouteNo="0" devices="tripinfo_veh12" vType="CarB" speedFactor="1.05" vaporized=""/>
    <tripinfo id="veh21" depart="54009.00" departLane="D8_0" departPos="7.60" departSpeed="0.00" departDelay="9.00" arrival="54309.00" arrivalLane="D1_0" arrivalPos="500.00" arrivalSpeed="13.66" duration="300.00" routeLength="3993.68" waitingTime="0.00" waitingCount="0" stopTime="0.00" timeLoss="15.32" rerouteNo="0" devices="tripinfo_veh21" vType="CarB" speedFactor="1.01" vaporized=""/>
    <tripinfo id="veh42" depart="54036.00" departLane="D6_0" departPos="7.60" departSpeed="0.00" departDelay="36.00" arrival="54313.00" arrivalLane="D3_0" arrivalPos="500.00" arrivalSpeed="14.99" duration="277.00" routeLength="3993.68" waitingTime="0.00" waitingCount="0" stopTime="0.00" timeLoss="13.60" rerouteNo="0" devices="tripinfo_veh42" vType="CarD" speedFactor="1.09" vaporized=""/>
    <tripinfo id="veh45" depart="54035.00" departLane="D8_0" departPos="7.60" departSpeed="0.00" departDelay="35.00" arrival="54313.00" arrivalLane="D1_0" arrivalPos="500.00" arrivalSpeed="15.02" duration="278.00" routeLength="3993.68" waitingTime="0.00" waitingCount="0" stopTime="0.00" timeLoss="13.36" rerouteNo="0" devices="tripinfo_veh45" vType="CarD" speedFactor="1.09" vaporized=""/>
    <tripinfo id="veh51" depart="54050.00" departLane="D4_0" departPos="5.10" departSpeed="0.00" departDelay="20.00" arrival="54315.00" arrivalLane="D5_0" arrivalPos="500.00" arrivalSpeed="14.84" duration="265.00" routeLength="3996.18" waitingTime="0.00" waitingCount="0" stopTime="0.00" timeLoss="18.02" rerouteNo="0" devices="tripinfo_veh51" vType="CarA" speedFactor="1.17" vaporized=""/>
    <tripinfo id="veh57" depart="54050.00" departLane="D8_0" departPos="5.10" departSpeed="0.00" departDelay="20.00" arrival="54320.00" arrivalLane="D1_0" arrivalPos="500.00" arrivalSpeed="14.63" duration="270.00" routeLength="3996.18" waitingTime="0.00" waitingCount="0" stopTime="0.00" timeLoss="17.35" rerouteNo="0" devices="tripinfo_veh57" vType="CarA" speedFactor="1.14" vaporized=""/>
    <tripinfo id="veh18" depart="54009.00" departLane="D6_0" departPos="7.60" departSpeed="0.00" departDelay="9.00" arrival="54334.00" arrivalLane="D3_0" arrivalPos="500.00" arrivalSpeed="12.04" duration="325.00" routeLength="3993.68" waitingTime="0.00" waitingCount="0" stopTime="0.00" timeLoss="17.18" rerouteNo="0" devices="tripinfo_veh18" vType="CarB" speedFactor="0.94" vaporized=""/>
    <tripinfo id="veh15" depart="54009.00" departLane="D4_0" departPos="7.60" departSpeed="0.00" departDelay="9.00" arrival="54336.00" arrivalLane="D5_0" arrivalPos="500.00" arrivalSpeed="12.03" duration="327.00" routeLength="3993.68" waitingTime="0.00" waitingCount="0" stopTime="0.00" timeLoss="16.18" rerouteNo="0" devices="tripinfo_veh15" vType="CarB" speedFactor="0.93" vaporized=""/>
    <tripinfo id="veh60" depart="54057.00" departLane="D2_0" departPos="7.60" departSpeed="0.00" departDelay="27.00" arrival="54339.00" arrivalLane="D7_0" arrivalPos="500.00" arrivalSpeed="14.13" duration="282.00" routeLength="3993.20" waitingTime="0.00" waitingCount="0" stopTime="0.00" timeLoss="15.56" rerouteNo="0" devices="tripinfo_veh60" vType="CarB" speedFactor="1.08" vaporized=""/>
    <tripinfo id="veh27" depart="54020.00" departLane="D4_0" departPos="5.10" departSpeed="0.00" departDelay="20.00" arrival="54345.00" arrivalLane="D5_0" arrivalPos="500.00" arrivalSpeed="12.99" duration="325.00" routeLength="3996.18" waitingTime="0.00" waitingCount="0" stopTime="0.00" timeLoss="21.00" rerouteNo="0" devices="tripinfo_veh27" vType="CarC" speedFactor="0.95" vaporized=""/>
    <tripinfo id="veh36" depart="54034.00" departLane="D2_0" departPos="7.60" departSpeed="0.00" departDelay="34.00" arrival="54348.00" arrivalLane="D7_0" arrivalPos="500.00" arrivalSpeed="13.05" duration="314.00" routeLength="3993.20" waitingTime="0.00" waitingCount="0" stopTime="0.00" timeLoss="17.97" rerouteNo="0" devices="tripinfo_veh36" vType="CarD" speedFactor="0.97" vaporized=""/>
    <tripinfo id="veh84" depart="54083.00" departLane="D2_0" departPos="7.60" departSpeed="0.00" departDelay="53.00" arrival="54350.00" arrivalLane="D7_0" arrivalPos="500.00" arrivalSpeed="15.58" duration="267.00" routeLength="3993.20" waitingTime="0.00" waitingCount="0" stopTime="0.00" timeLoss="16.10" rerouteNo="0" devices="tripinfo_veh84" vType="CarD" speedFactor="1.15" vaporized=""/>
    <tripinfo id="veh54" depart="54050.00" departLane="D6_0" departPos="5.10" departSpeed="0.00" departDelay="20.00" arrival="54356.00" arrivalLane="D3_0" arrivalPos="500.00" arrivalSpeed="13.91" duration="306.00" routeLength="3996.18" waitingTime="0.00" waitingCount="0" stopTime="0.00" timeLoss="19.08" rerouteNo="0" devices="tripinfo_veh54" vType="CarA" speedFactor="1.00" vaporized=""/>
    <tripinfo id="veh69" depart="54059.00" departLane="D8_0" departPos="7.60" departSpeed="0.00" departDelay="29.00" arrival="54356.00" arrivalLane="D1_0" arrivalPos="500.00" arrivalSpeed="13.90" duration="297.00" routeLength="3993.68" waitingTime="0.00" waitingCount="0" stopTime="0.00" timeLoss="15.35" rerouteNo="0" devices="tripinfo_veh69" vType="CarB" speedFactor="1.02" vaporized=""/>
    <tripinfo id="veh10" depart="54003.00" departLane="D8_0" departPos="5.10" departSpeed="0.00" departDelay="3.00" arrival="54357.00" arrivalLane="D3_1" arrivalPos="500.00" arrivalSpeed="14.75" duration="354.00" routeLength="4978.59" waitingTime="0.00" waitingCount="0" stopTime="0.00" timeLoss="24.51" rerouteNo="0" devices="tripinfo_veh10" vType="CarA" speedFactor="1.09" vaporized=""/>
    <tripinfo id="veh9" depart="54000.00" departLane="D8_0" departPos="5.10" departSpeed="0.00" departDelay="0.00" arrival="54361.00" arrivalLane="D1_0" arrivalPos="500.00" arrivalSpeed="11.34" duration="361.00" routeLength="3996.18" waitingTime="0.00" waitingCount="0" stopTime="0.00" timeLoss="25.25" rerouteNo="0" devices="tripinfo_veh9" vType="CarA" speedFactor="0.86" vaporized=""/>
    <tripinfo id="veh63" depart="54059.00" departLane="D4_0" departPos="7.60" departSpeed="0.00" departDelay="29.00" arrival="54367.00" arrivalLane="D5_0" arrivalPos="500.00" arrivalSpeed="13.20" duration="308.00" routeLength="3993.68" waitingTime="0.00" waitingCount="0" stopTime="0.00" timeLoss="15.90" rerouteNo="0" devices="tripinfo_veh63" vType="CarB" speedFactor="0.99" vaporized=""/>
    <tripinfo id="veh39" depart="54035.00" departLane="D4_0" departPos="7.60" departSpeed="0.00" departDelay="35.00" arrival="54369.00" arrivalLane="D5_0" arrivalPos="500.00" arrivalSpeed="12.12" duration="334.00" routeLength="3993.68" waitingTime="0.00" waitingCount="0" stopTime="0.00" timeLoss="13.98" rerouteNo="0" devices="tripinfo_veh39" vType="CarD" speedFactor="0.90" vaporized=""/>
    <tripinfo id="veh78" depart="54070.00" departLane="D6_0" departPos="5.10" departSpeed="0.00" departDelay="40.00" arrival="54371.00" arrivalLane="D3_0" arrivalPos="500.00" arrivalSpeed="13.61" duration="301.00" routeLength="3996.18" waitingTime="0.00" waitingCount="0" stopTime="0.00" timeLoss="15.33" rerouteNo="0" devices="tripinfo_veh78" vType="CarC" speedFactor="1.01" vaporized=""/>
    <tripinfo id="veh81" depart="54070.00" departLane="D8_0" departPos="5.10" departSpeed="0.00" departDelay="40.00" arrival="54373.00" arrivalLane="D1_0" arrivalPos="500.00" arrivalSpeed="13.68" duration="303.00" routeLength="3996.18" waitingTime="0.00" waitingCount="0" stopTime="0.00" timeLoss="14.24" rerouteNo="0" devices="tripinfo_veh81" vType="CarC" speedFactor="1.00" vaporized=""/>
    <tripinfo id="veh87" depart="54084.00" departLane="D4_0" departPos="7.60" departSpeed="0.00" departDelay="54.00" arrival="54375.00" arrivalLane="D5_1" arrivalPos="500.00" arrivalSpeed="14.35" duration="291.00" routeLength="3993.68" waitingTime="0.00" waitingCount="0" stopTime="0.00" timeLoss="15.26" rerouteNo="0" devices="tripinfo_veh87" vType="CarD" speedFactor="1.04" vaporized=""/>
    <tripinfo id="veh75" depart="54070.00" departLane="D4_0" departPos="5.10" departSpeed="0.00" departDelay="40.00" arrival="54377.00" arrivalLane="D5_0" arrivalPos="500.00" arrivalSpeed="13.23" duration="307.00" routeLength="3996.18" waitingTime="0.00" waitingCount="0" stopTime="0.00" timeLoss="14.34" rerouteNo="0" devices="tripinfo_veh75" vType="CarC" speedFactor="0.98" vaporized=""/>
    <tripinfo id="veh99" depart="54100.00" departLane="D4_0" departPos="5.10" departSpeed="0.00" departDelay="40.00" arrival="54379.00" arrivalLane="D5_0" arrivalPos="500.00" arrivalSpeed="13.75" duration="279.00" routeLength="3996.18" waitingTime="0.00" waitingCount="0" stopTime="0.00" timeLoss="16.55" rerouteNo="0" devices="tripinfo_veh99" vType="CarA" speedFactor="1.10" vaporized=""/>
    <tripinfo id="veh2" depart="54006.00" departLane="D2_0" departPos="5.10" departSpeed="0.00" departDelay="6.00" arrival="54382.00" arrivalLane="D3_0" arrivalPos="500.00" arrivalSpeed="13.55" duration="376.00" routeLength="4962.85" waitingTime="0.00" waitingCount="0" stopTime="0.00" timeLoss="22.33" rerouteNo="0" devices="tripinfo_veh2" vType="CarA" speedFactor="1.01" vaporized=""/>
    <tripinfo id="veh90" depart="54084.00" departLane="D6_0" departPos="7.60" departSpeed="0.00" departDelay="54.00" arrival="54382.00" arrivalLane="D3_1" arrivalPos="500.00" arrivalSpeed="14.03" duration="298.00" routeLength="3993.68" waitingTime="0.00" waitingCount="0" stopTime="0.00" timeLoss="14.95" rerouteNo="0" devices="tripinfo_veh90" vType="CarD" speedFactor="1.02" vaporized=""/>
    <tripinfo id="veh24" depart="54020.00" departLane="D2_0" departPos="5.10" departSpeed="0.00" departDelay="20.00" arrival="54383.00" arrivalLane="D7_0" arrivalPos="500.00" arrivalSpeed="11.36" duration="363.00" routeLength="3995.70" waitingTime="0.00" waitingCount="0" stopTime="0.00" timeLoss="14.55" rerouteNo="0" devices="tripinfo_veh24" vType="CarC" speedFactor="0.83" vaporized=""/>
    <tripinfo id="veh105" depart="54100.00" departLane="D8_0" departPos="5.10" departSpeed="0.00" departDelay="40.00" arrival="54386.00" arrivalLane="D1_0" arrivalPos="500.00" arrivalSpeed="13.56" duration="286.00" routeLength="3996.18" waitingTime="0.00" waitingCount="0" stopTime="0.00" timeLoss="17.44" rerouteNo="0" devices="tripinfo_veh105" vType="CarA" speedFactor="1.07" vaporized=""/>
    <tripinfo id="veh20" depart="54017.00" departLane="D6_0" departPos="7.60" departSpeed="0.00" departDelay="17.00" arrival="54388.00" arrivalLane="D7_1" arrivalPos="500.00" arrivalSpeed="13.97" duration="371.00" routeLength="4967.11" waitingTime="0.00" waitingCount="0" stopTime="0.00" timeLoss="18.99" rerouteNo="0" devices="tripinfo_veh20" vType="CarB" speedFactor="1.02" vaporized=""/>
    <tripinfo id="veh72" depart="54068.00" departLane="D2_0" departPos="5.10" departSpeed="0.00" departDelay="38.00" arrival="54389.00" arrivalLane="D7_0" arrivalPos="500.00" arrivalSpeed="12.83" duration="321.00" routeLength="3995.70" waitingTime="0.00" waitingCount="0" stopTime="0.00" timeLoss="14.86" rerouteNo="0" devices="tripinfo_veh72" vType="CarC" speedFactor="0.94" vaporized=""/>
    <tripinfo id="veh114" depart="54109.00" departLane="D6_0" departPos="7.60" departSpeed="0.00" departDelay="49.00" arrival="54391.00" arrivalLane="D3_0" arrivalPos="500.00" arrivalSpeed="14.88" duration="282.00" routeLength="3993.68" waitingTime="0.00" waitingCount="0" stopTime="0.00" timeLoss="19.30" rerouteNo="0" devices="tripinfo_veh114" vType="CarB" speedFactor="1.10" vaporized=""/>
    <tripinfo id="veh66" depart="54059.00" departLane="D6_0" departPos="7.60" departSpeed="0.00" departDelay="29.00" arrival="54393.00" arrivalLane="D3_0" arrivalPos="500.00" arrivalSpeed="11.98" duration="334.00" routeLength="3993.68" waitingTime="0.00" waitingCount="0" stopTime="0.00" timeLoss="16.90" rerouteNo="0" devices="tripinfo_veh66" vType="CarB" speedFactor="0.91" vaporized=""/>
    <tripinfo id="veh108" depart="54108.00" departLane="D2_0" departPos="7.60" departSpeed="0.00" departDelay="48.00" arrival="54395.00" arrivalLane="D7_0" arrivalPos="500.00" arrivalSpeed="14.75" duration="287.00" routeLength="3993.20" waitingTime="0.00" waitingCount="0" stopTime="0.00" timeLoss="16.11" rerouteNo="0" devices="tripinfo_veh108" vType="CarB" speedFactor="1.06" vaporized=""/>
    <tripinfo id="veh14" depart="54017.00" departLane="D2_0" departPos="7.60" departSpeed="0.00" departDelay="17.00" arrival="54396.00" arrivalLane="D3_0" arrivalPos="500.00" arrivalSpeed="13.58" duration="379.00" routeLength="4960.35" waitingTime="0.00" waitingCount="0" stopTime="0.00" timeLoss="18.38" rerouteNo="0" devices="tripinfo_veh14" vType="CarB" speedFactor="0.99" vaporized=""/>
    <tripinfo id="veh141" depart="54134.00" departLane="D8_0" departPos="7.60" departSpeed="0.00" departDelay="74.00" arrival="54397.00" arrivalLane="D1_0" arrivalPos="500.00" arrivalSpeed="15.83" duration="263.00" routeLength="3993.68" waitingTime="0.00" waitingCount="0" stopTime="0.00" timeLoss="15.31" rerouteNo="0" devices="tripinfo_veh141" vType="CarD" speedFactor="1.16" vaporized=""/>
    <tripinfo id="veh48" depart="54048.00" departLane="D2_0" departPos="5.10" departSpeed="0.00" departDelay="18.00" arrival="54401.00" arrivalLane="D7_0" arrivalPos="500.00" arrivalSpeed="11.21" duration="353.00" routeLength="3995.70" waitingTime="0.00" waitingCount="0" stopTime="0.00" timeLoss="24.71" rerouteNo="0" devices="tripinfo_veh48" vType="CarA" speedFactor="0.88" vaporized=""/>
    <tripinfo id="veh28" depart="54024.00" departLane="D4_0" departPos="5.10" departSpeed="0.00" departDelay="24.00" arrival="54404.00" arrivalLane="D7_2" arrivalPos="500.00" arrivalSpeed="15.56" duration="380.00" routeLength="4986.41" waitingTime="26.00" waitingCount="1" stopTime="0.00" timeLoss="62.64" rerouteNo="0" devices="tripinfo_veh28" vType="CarC" speedFactor="1.13" vaporized=""/>
    <tripinfo id="veh32" depart="54031.00" departLane="D6_0" departPos="5.10" departSpeed="0.00" departDelay="31.00" arrival="54405.00" arrivalLane="D7_1" arrivalPos="500.00" arrivalSpeed="13.63" duration="374.00" routeLength="4969.61" waitingTime="0.00" waitingCount="0" stopTime="0.00" timeLoss="17.49" rerouteNo="0" devices="tripinfo_veh32" vType="CarC" speedFactor="1.01" vaporized=""/>
    <tripinfo id="veh96" depart="54099.00" departLane="D2_0" departPos="5.10" departSpeed="0.00" departDelay="39.00" arrival="54405.00" arrivalLane="D7_0" arrivalPos="500.00" arrivalSpeed="13.43" duration="306.00" routeLength="3995.70" waitingTime="0.00" waitingCount="0" stopTime="0.00" timeLoss="20.64" rerouteNo="0" devices="tripinfo_veh96" vType="CarA" speedFactor="1.01" vaporized=""/>
    <tripinfo id="veh44" depart="54046.00" departLane="D6_0" departPos="7.60" departSpeed="0.00" departDelay="46.00" arrival="54406.00" arrivalLane="D7_1" arrivalPos="500.00" arrivalSpeed="14.16" duration="360.00" routeLength="4967.11" waitingTime="0.00" waitingCount="0" stopTime="0.00" timeLoss="17.27" rerouteNo="0" devices="tripinfo_veh44" vType="CarD" speedFactor="1.04" vaporized=""/>
    <tripinfo id="veh117" depart="54109.00" departLane="D8_0" departPos="7.60" departSpeed="0.00" departDelay="49.00" arrival="54410.00" arrivalLane="D1_1" arrivalPos="500.00" arrivalSpeed="13.23" duration="301.00" routeLength="3993.68" waitingTime="0.00" waitingCount="0" stopTime="0.00" timeLoss="14.22" rerouteNo="0" devices="tripinfo_veh117" vType="CarB" speedFactor="1.00" vaporized=""/>
    <tripinfo id="veh93" depart="54084.00" departLane="D8_0" departPos="7.60" departSpeed="0.00" departDelay="54.00" arrival="54411.00" arrivalLane="D1_0" arrivalPos="500.00" arrivalSpeed="12.72" duration="327.00" routeLength="3993.68" waitingTime="0.00" waitingCount="0" stopTime="0.00" timeLoss="14.52" rerouteNo="0" devices="tripinfo_veh93" vType="CarD" speedFactor="0.92" vaporized=""/>
    <tripinfo id="veh126" depart="54120.00" departLane="D6_0" departPos="5.10" departSpeed="0.00" departDelay="60.00" arrival="54414.00" arrivalLane="D3_0" arrivalPos="500.00" arrivalSpeed="14.05" duration="294.00" routeLength="3996.18" waitingTime="0.00" waitingCount="0" stopTime="0.00" timeLoss="14.58" rerouteNo="0" devices="tripinfo_veh126" vType="CarC" speedFactor="1.03" vaporized=""/>
    <tripinfo id="veh123" depart="54120.00" departLane="D4_0" departPos="5.10" departSpeed="0.00" departDelay="60.00" arrival="54415.00" arrivalLane="D5_0" arrivalPos="500.00" arrivalSpeed="14.14" duration="295.00" routeLength="3996.18" waitingTime="0.00" waitingCount="0" stopTime="0.00" timeLoss="13.72" rerouteNo="0" devices="tripinfo_veh123" vType="CarC" speedFactor="1.02" vaporized=""/>
    <tripinfo id="veh156" depart="54157.00" departLane="D2_0" departPos="7.60" departSpeed="0.00" departDelay="67.00" arrival="54416.00" arrivalLane="D7_0" arrivalPos="500.00" arrivalSpeed="16.28" duration="259.00" routeLength="3993.20" waitingTime="0.00" waitingCount="0" stopTime="0.00" timeLoss="15.14" rerouteNo="0" devices="tripinfo_veh156" vType="CarB" speedFactor="1.18" vaporized=""/>
    <tripinfo id="veh102" depart="54100.00" departLane="D6_0" departPos="5.10" departSpeed="0.00" departDelay="40.00" arrival="54418.00" arrivalLane="D3_0" arrivalPos="500.00" arrivalSpeed="13.00" duration="318.00" routeLength="3996.18" waitingTime="0.00" waitingCount="0" stopTime="0.00" timeLoss="19.99" rerouteNo="0" devices="tripinfo_veh102" vType="CarA" speedFactor="0.97" vaporized=""/>
    <tripinfo id="veh129" depart="54120.00" departLane="D8_0" departPos="5.10" departSpeed="0.00" departDelay="60.00" arrival="54419.00" arrivalLane="D1_0" arrivalPos="500.00" arrivalSpeed="13.96" duration="299.00" routeLength="3996.18" waitingTime="0.00" waitingCount="0" stopTime="0.00" timeLoss="13.45" rerouteNo="0" devices="tripinfo_veh129" vType="CarC" speedFactor="1.01" vaporized=""/>
    <tripinfo id="veh4" depart="54003.00" departLane="D4_0" departPos="5.10" departSpeed="0.00" departDelay="3.00" arrival="54420.00" arrivalLane="D7_0" arrivalPos="500.00" arrivalSpeed="13.56" duration="417.00" routeLength="4985.29" waitingTime="41.00" waitingCount="1" stopTime="0.00" timeLoss="67.77" rerouteNo="0" devices="tripinfo_veh4" vType="CarA" speedFactor="1.03" vaporized=""/>
    <tripinfo id="veh38" depart="54044.00" departLane="D2_0" departPos="7.60" departSpeed="0.00" departDelay="44.00" arrival="54420.00" arrivalLane="D3_0" arrivalPos="500.00" arrivalSpeed="15.11" duration="376.00" routeLength="4960.35" waitingTime="9.00" waitingCount="1" stopTime="0.00" timeLoss="51.26" rerouteNo="0" devices="tripinfo_veh38" vType="CarD" speedFactor="1.10" vaporized=""/>
    <tripinfo id="veh159" depart="54157.00" departLane="D4_0" departPos="7.60" departSpeed="0.00" departDelay="67.00" arrival="54426.00" arrivalLane="D5_0" arrivalPos="500.00" arrivalSpeed="15.56" duration="269.00" routeLength="3993.68" waitingTime="0.00" waitingCount="0" stopTime="0.00" timeLoss="16.75" rerouteNo="0" devices="tripinfo_veh159" vType="CarB" speedFactor="1.14" vaporized=""/>
    <tripinfo id="veh8" depart="54006.00" departLane="D6_0" departPos="5.10" departSpeed="0.00" departDelay="6.00" arrival="54428.00" arrivalLane="D7_0" arrivalPos="500.00" arrivalSpeed="11.62" duration="422.00" routeLength="4969.61" waitingTime="9.00" waitingCount="1" stopTime="0.00" timeLoss="40.41" rerouteNo="0" devices="tripinfo_veh8" vType="CarA" speedFactor="0.94" vaporized=""/>
    <tripinfo id="veh68" depart="54067.00" departLane="D6_0" departPos="7.60" departSpeed="0.00" departDelay="37.00" arrival="54428.00" arrivalLane="D7_1" arrivalPos="500.00" arrivalSpeed="13.88" duration="361.00" routeLength="4967.11" waitingTime="0.00" waitingCount="0" stopTime="0.00" timeLoss="16.91" rerouteNo="0" devices="tripinfo_veh68" vType="CarB" speedFactor="1.04" vaporized=""/>
    <tripinfo id="veh22" depart="54013.00" departLane="D8_0" departPos="7.60" departSpeed="0.00" departDelay="13.00" arrival="54430.00" arrivalLane="D3_0" arrivalPos="500.00" arrivalSpeed="13.13" duration="417.00" routeLength="4976.09" waitingTime="19.00" waitingCount="1" stopTime="0.00" timeLoss="48.87" rerouteNo="0" devices="tripinfo_veh22" vType="CarB" speedFactor="0.97" vaporized=""/>
    <tripinfo id="veh34" depart="54025.00" departLane="D8_0" departPos="5.10" departSpeed="0.00" departDelay="25.00" arrival="54431.00" arrivalLane="D3_1" arrivalPos="500.00" arrivalSpeed="13.42" duration="406.00" routeLength="4978.59" waitingTime="16.00" waitingCount="1" stopTime="0.00" timeLoss="45.30" rerouteNo="0" devices="tripinfo_veh34" vType="CarC" speedFactor="0.99" vaporized=""/>
    <tripinfo id="veh135" depart="54134.00" departLane="D4_0" departPos="7.60" departSpeed="0.00" departDelay="74.00" arrival="54433.00" arrivalLane="D5_0" arrivalPos="500.00" arrivalSpeed="13.59" duration="299.00" routeLength="3993.68" waitingTime="0.00" waitingCount="0" stopTime="0.00" timeLoss="14.13" rerouteNo="0" devices="tripinfo_veh135" vType="CarD" speedFactor="1.01" vaporized=""/>
    <tripinfo id="veh138" depart="54135.00" departLane="D6_0" departPos="7.60" departSpeed="0.00" departDelay="75.00" arrival="54437.00" arrivalLane="D3_1" arrivalPos="500.00" arrivalSpeed="13.86" duration="302.00" routeLength="3993.68" waitingTime="0.00" waitingCount="0" stopTime="0.00" timeLoss="15.33" rerouteNo="0" devices="tripinfo_veh138" vType="CarD" speedFactor="1.00" vaporized=""/>
    <tripinfo id="veh58" depart="54053.00" departLane="D8_0" departPos="5.10" departSpeed="0.00" departDelay="23.00" arrival="54438.00" arrivalLane="D3_0" arrivalPos="500.00" arrivalSpeed="13.33" duration="385.00" routeLength="4980.02" waitingTime="0.00" waitingCount="0" stopTime="0.00" timeLoss="33.82" rerouteNo="0" devices="tripinfo_veh58" vType="CarA" speedFactor="1.02" vaporized=""/>
    <tripinfo id="veh120" depart="54119.00" departLane="D2_0" departPos="5.10" departSpeed="0.00" departDelay="59.00" arrival="54439.00" arrivalLane="D7_0" arrivalPos="500.00" arrivalSpeed="12.79" duration="320.00" routeLength="3995.70" waitingTime="0.00" waitingCount="0" stopTime="0.00" timeLoss="13.50" rerouteNo="0" devices="tripinfo_veh120" vType="CarC" speedFactor="0.94" vaporized=""/>
    <tripinfo id="veh80" depart="54079.00" departLane="D6_0" departPos="5.10" departSpeed="0.00" departDelay="49.00" arrival="54447.00" arrivalLane="D7_1" arrivalPos="500.00" arrivalSpeed="13.92" duration="368.00" routeLength="4969.61" waitingTime="0.00" waitingCount="0" stopTime="0.00" timeLoss="21.40" rerouteNo="0" devices="tripinfo_veh80" vType="CarC" speedFactor="1.03" vaporized=""/>
    <tripinfo id="veh26" depart="54029.00" departLane="D2_0" departPos="5.10" departSpeed="0.00" departDelay="29.00" arrival="54448.00" arrivalLane="D3_0" arrivalPos="500.00" arrivalSpeed="12.59" duration="419.00" routeLength="4962.85" waitingTime="2.00" waitingCount="1" stopTime="0.00" timeLoss="28.61" rerouteNo="0" devices="tripinfo_veh26" vType="CarC" speedFactor="0.92" vaporized=""/>
    <tripinfo id="veh62" depart="54065.00" departLane="D2_0" departPos="7.60" departSpeed="0.00" departDelay="35.00" arrival="54448.00" arrivalLane="D3_1" arrivalPos="500.00" arrivalSpeed="13.19" duration="383.00" routeLength="4960.35" waitingTime="0.00" waitingCount="0" stopTime="0.00" timeLoss="31.14" rerouteNo="0" devices="tripinfo_veh62" vType="CarB" speedFactor="1.02" vaporized=""/>
    <tripinfo id="veh132" depart="54133.00" departLane="D2_0" departPos="7.60" departSpeed="0.00" departDelay="73.00" arrival="54448.00" arrivalLane="D7_0" arrivalPos="500.00" arrivalSpeed="13.30" duration="315.00" routeLength="3993.20" waitingTime="0.00" waitingCount="0" stopTime="0.00" timeLoss="14.67" rerouteNo="0" devices="tripinfo_veh132" vType="CarD" speedFactor="0.96" vaporized=""/>
    <tripinfo id="veh46" depart="54040.00" departLane="D8_0" departPos="7.60" departSpeed="0.00" departDelay="40.00" arrival="54449.00" arrivalLane="D3_0" arrivalPos="500.00" arrivalSpeed="13.39" duration="409.00" routeLength="4976.09" waitingTime="7.00" waitingCount="1" stopTime="0.00" timeLoss="49.60" rerouteNo="0" devices="tripinfo_veh46" vType="CarD" speedFactor="1.00" vaporized=""/>
    <tripinfo id="veh147" depart="54149.00" departLane="D4_0" departPos="5.10" departSpeed="0.00" departDelay="59.00" arrival="54455.00" arrivalLane="D5_0" arrivalPos="500.00" arrivalSpeed="13.77" duration="306.00" routeLength="3996.18" waitingTime="0.00" waitingCount="0" stopTime="0.00" timeLoss="18.81" rerouteNo="0" devices="tripinfo_veh147" vType="CarA" speedFactor="1.00" vaporized=""/>
    <tripinfo id="veh98" depart="54105.00" departLane="D2_0" departPos="5.10" departSpeed="0.00" departDelay="45.00" arrival="54458.00" arrivalLane="D3_0" arrivalPos="500.00" arrivalSpeed="15.06" duration="353.00" routeLength="4962.85" waitingTime="0.00" waitingCount="0" stopTime="0.00" timeLoss="34.09" rerouteNo="0" devices="tripinfo_veh98" vType="CarA" speedFactor="1.12" vaporized=""/>
    <tripinfo id="veh111" depart="54109.00" departLane="D4_0" departPos="7.60" departSpeed="0.00" departDelay="49.00" arrival="54459.00" arrivalLane="D5_0" arrivalPos="500.00" arrivalSpeed="11.44" duration="350.00" routeLength="3993.68" waitingTime="0.00" waitingCount="0" stopTime="0.00" timeLoss="17.40" rerouteNo="0" devices="tripinfo_veh111" vType="CarB" speedFactor="0.87" vaporized=""/>
    <tripinfo id="veh116" depart="54117.00" departLane="D6_0" departPos="7.60" departSpeed="0.00" departDelay="57.00" arrival="54459.00" arrivalLane="D7_2" arrivalPos="500.00" arrivalSpeed="15.47" duration="342.00" routeLength="4967.11" waitingTime="2.00" waitingCount="1" stopTime="0.00" timeLoss="38.18" rerouteNo="0" devices="tripinfo_veh116" vType="CarB" speedFactor="1.18" vaporized=""/>
    <tripinfo id="veh180" depart="54184.00" departLane="D2_0" departPos="7.60" departSpeed="0.00" departDelay="94.00" arrival="54460.00" arrivalLane="D7_0" arrivalPos="500.00" arrivalSpeed="14.98" duration="276.00" routeLength="3993.20" waitingTime="0.00" waitingCount="0" stopTime="0.00" timeLoss="14.45" rerouteNo="0" devices="tripinfo_veh180" vType="CarD" speedFactor="1.10" vaporized=""/>
    <tripinfo id="veh162" depart="54158.00" departLane="D6_0" departPos="7.60" departSpeed="0.00" departDelay="68.00" arrival="54462.00" arrivalLane="D3_0" arrivalPos="500.00" arrivalSpeed="13.17" duration="304.00" routeLength="3993.68" waitingTime="0.00" waitingCount="0" stopTime="0.00" timeLoss="13.98" rerouteNo="0" devices="tripinfo_veh162" vType="CarB" speedFactor="0.99" vaporized=""/>