<?xml version="1.0" encoding="UTF-8"?>

<!-- generated on 2023-03-29 14:00:44 by Eclipse SUMO GUI Version 1.16.0
<configuration xmlns:xsi="http://www.w3.org/2001/XMLSchema-instance" xsi:noNamespaceSchemaLocation="http://sumo.dlr.de/xsd/sumoConfiguration.xsd">

    <input>
        <net-file value="../../models/Mannheim145_export06032023/osm.net.xml"/>
        <route-files value="../../models/Mannheim145_export06032023/flows.rou.xml,../../models/Mannheim145_export06032023/osm.person.trips.xml,../../models/Mannheim145_export06032023/osm.passenger.trips.xml,../../models/Mannheim145_export06032023/osm.truck.trips.xml,../../models/Mannheim145_export06032023/osm.bus.trips.xml,../../models/Mannheim145_export06032023/osm.motorcycle.trips.xml,../../models/Mannheim145_export06032023/osm.bicycle.trips.xml,../../models/Mannheim145_export06032023/osm.pedestrian.rou.xml,../../models/Mannheim145_export06032023/osm.ship.trips.xml"/>
        <additional-files value="../../models/Mannheim145_export06032023/osm.poly.xml,../../models/Mannheim145_export06032023/ stops.add.xml"/>
    </input>

    <output>
        <tripinfo-output value="tripinfo.xml"/>
    </output>

    <processing>
        <ignore-route-errors value="true"/>
        <tls.actuated.show-detectors value="true"/>
    </processing>

    <routing>
        <device.rerouting.adaptation-steps value="18"/>
        <device.rerouting.adaptation-interval value="10"/>
    </routing>

    <report>
        <verbose value="true"/>
        <duration-log.statistics value="true"/>
        <no-step-log value="true"/>
    </report>

    <traci_server>
        <remote-port value="56848"/>
    </traci_server>

    <gui_only>
        <gui-settings-file value="../../models/Mannheim145_export06032023/osm.view.xml"/>
    </gui_only>

</configuration>
-->

<tripinfos xmlns:xsi="http://www.w3.org/2001/XMLSchema-instance" xsi:noNamespaceSchemaLocation="http://sumo.dlr.de/xsd/tripinfo_file.xsd">
</tripinfos>
