<?xml version="1.0" encoding="UTF-8"?>

<!-- generated on 2023-03-31 11:10:31 by Eclipse SUMO GUI Version 1.16.0
<configuration xmlns:xsi="http://www.w3.org/2001/XMLSchema-instance" xsi:noNamespaceSchemaLocation="http://sumo.dlr.de/xsd/sumoConfiguration.xsd">

    <input>
        <net-file value="../../models/Mannheim145_export06032023/osm.net.xml"/>
        <route-files value="../../models/Mannheim145_export06032023/flows.rou.xml,../../models/Mannheim145_export06032023/osm.person.trips.xml,../../models/Mannheim145_export06032023/osm.passenger.trips.xml,../../models/Mannheim145_export06032023/osm.truck.trips.xml,../../models/Mannheim145_export06032023/osm.bus.trips.xml,../../models/Mannheim145_export06032023/osm.motorcycle.trips.xml,../../models/Mannheim145_export06032023/osm.bicycle.trips.xml,../../models/Mannheim145_export06032023/osm.pedestrian.rou.xml,../../models/Mannheim145_export06032023/osm.ship.trips.xml"/>
        <additional-files value="../../models/Mannheim145_export06032023/osm.poly.xml,../../models/Mannheim145_export06032023/ stops.add.xml"/>
    </input>

    <output>
        <tripinfo-output value="tripinfo.xml"/>
    </output>

    <processing>
        <ignore-route-errors value="true"/>
        <tls.actuated.show-detectors value="true"/>
    </processing>

    <routing>
        <device.rerouting.adaptation-steps value="18"/>
        <device.rerouting.adaptation-interval value="10"/>
    </routing>

    <report>
        <verbose value="true"/>
        <duration-log.statistics value="true"/>
        <no-step-log value="true"/>
    </report>

    <traci_server>
        <remote-port value="53216"/>
    </traci_server>

    <gui_only>
        <gui-settings-file value="../../models/Mannheim145_export06032023/osm.view.xml"/>
    </gui_only>

</configuration>
-->

<tripinfos xmlns:xsi="http://www.w3.org/2001/XMLSchema-instance" xsi:noNamespaceSchemaLocation="http://sumo.dlr.de/xsd/tripinfo_file.xsd">
    <tripinfo id="moto9" depart="45.00" departLane="1055823708#2_1" departPos="2.30" departSpeed="0.00" departDelay="0.00" arrival="120.00" arrivalLane="626581542_1" arrivalPos="89.07" arrivalSpeed="7.70" duration="75.00" routeLength="529.31" waitingTime="0.00" waitingCount="0" stopTime="0.00" timeLoss="14.58" rerouteNo="1" devices="tripinfo_moto9 routing_moto9" vType="moto_motorcycle" speedFactor="1.06" vaporized=""/>
    <tripinfo id="moto7" depart="35.00" departLane="-206972903_0" departPos="2.30" departSpeed="0.00" departDelay="0.00" arrival="123.00" arrivalLane="-520824524#1_1" arrivalPos="45.25" arrivalSpeed="8.43" duration="88.00" routeLength="587.73" waitingTime="0.00" waitingCount="0" stopTime="0.00" timeLoss="17.85" rerouteNo="1" devices="tripinfo_moto7 routing_moto7" vType="moto_motorcycle" speedFactor="1.03" vaporized=""/>
