<?xml version="1.0" encoding="UTF-8"?>

<!-- generated on 2023-11-29 21:59:28 by Eclipse SUMO sumo Version 1.18.0
<configuration xmlns:xsi="http://www.w3.org/2001/XMLSchema-instance" xsi:noNamespaceSchemaLocation="http://sumo.dlr.de/xsd/sumoConfiguration.xsd">

    <input>
        <net-file value="C:/Repos/rl_traffic_signal_optimization/models/20230718_sumo_ma/osm.net.xml,                         C:/Repos/rl_traffic_signal_optimization/models/20230718_sumo_ma/pt/gtfs_pt_stops.add.xml,                         C:/Repos/rl_traffic_signal_optimization/models/20230718_sumo_ma/pt/stops.add.xml,                         C:/Repos/rl_traffic_signal_optimization/models/20230718_sumo_ma/pt/vtypes.xml,                         C:/Repos/rl_traffic_signal_optimization/models/20230718_sumo_ma/osm.poly.xml"/>
        <route-files value="C:/Repos/rl_traffic_signal_optimization/models/20230718_sumo_ma/veh_routes.xml,                         C:/Repos/rl_traffic_signal_optimization/models/20230718_sumo_ma/pt/gtfs_pt_vehicles.xml,                         C:/Repos/rl_traffic_signal_optimization/models/20230718_sumo_ma/truck_routes.xml,                         C:/Repos/rl_traffic_signal_optimization/models/20230718_sumo_ma/bicycle_routes.xml,                         C:/Repos/rl_traffic_signal_optimization/models/20230718_sumo_ma/motorcycle_routes.xml"/>
    </input>

    <output>
        <tripinfo-output value="diff-waiting-time100-tripinfo.xml"/>
    </output>

    <time>
        <begin value=" 25200"/>
    </time>

    <processing>
        <time-to-teleport value="300"/>
        <waiting-time-memory value="1000"/>
        <max-depart-delay value="-1"/>
    </processing>

    <traci_server>
        <remote-port value="62067"/>
    </traci_server>

    <random_number>
        <random value="true"/>
    </random_number>

</configuration>
-->

<tripinfos xmlns:xsi="http://www.w3.org/2001/XMLSchema-instance" xsi:noNamespaceSchemaLocation="http://sumo.dlr.de/xsd/tripinfo_file.xsd">
    <tripinfo id="veh14410" depart="25210.00" departLane="-334457597#2_1" departPos="5.10" departSpeed="0.00" departDelay="0.00" arrival="25279.00" arrivalLane="-532149775#2_0" arrivalPos="77.75" arrivalSpeed="13.53" duration="69.00" routeLength="567.45" waitingTime="0.00" waitingCount="0" stopTime="0.00" timeLoss="10.28" rerouteNo="1" devices="tripinfo_veh14410 routing_veh14410" vType="DEFAULT_VEHTYPE" speedFactor="0.99" vaporized=""/>
    <tripinfo id="veh14439" depart="25239.00" departLane="121805100_1" departPos="0.20" departSpeed="0.00" departDelay="0.00" arrival="25295.00" arrivalLane="150393267#7_0" arrivalPos="74.90" arrivalSpeed="14.14" duration="56.00" routeLength="617.62" waitingTime="0.00" waitingCount="0" stopTime="0.00" timeLoss="12.06" rerouteNo="1" devices="tripinfo_veh14439 routing_veh14439" vType="DEFAULT_VEHTYPE" speedFactor="1.07" vaporized=""/>
    <tripinfo id="veh14406" depart="25206.00" departLane="-205103380#1_1" departPos="0.75" departSpeed="0.00" departDelay="0.00" arrival="25296.00" arrivalLane="-39649662#3_1" arrivalPos="39.11" arrivalSpeed="8.88" duration="90.00" routeLength="733.94" waitingTime="5.00" waitingCount="1" stopTime="0.00" timeLoss="21.15" rerouteNo="1" devices="tripinfo_veh14406 routing_veh14406" vType="DEFAULT_VEHTYPE" speedFactor="1.10" vaporized=""/>
    <tripinfo id="bike3029" depart="25251.00" departLane="-24549661#0_0" departPos="1.70" departSpeed="0.00" departDelay="0.85" arrival="25329.00" arrivalLane="-24608196#4_1" arrivalPos="59.23" arrivalSpeed="4.45" duration="78.00" routeLength="327.00" waitingTime="0.00" waitingCount="0" stopTime="0.00" timeLoss="6.74" rerouteNo="1" devices="tripinfo_bike3029 routing_bike3029" vType="bike_bicycle" speedFactor="0.83" vaporized=""/>
    <tripinfo id="veh14436" depart="25236.00" departLane="27247873_0" departPos="5.10" departSpeed="0.00" departDelay="0.00" arrival="25363.00" arrivalLane="500527046#1_1" arrivalPos="14.13" arrivalSpeed="12.49" duration="127.00" routeLength="1122.79" waitingTime="16.00" waitingCount="2" stopTime="0.00" timeLoss="35.16" rerouteNo="1" devices="tripinfo_veh14436 routing_veh14436" vType="DEFAULT_VEHTYPE" speedFactor="0.95" vaporized=""/>
    <tripinfo id="veh14475" depart="25278.00" departLane="53175060#2_2" departPos="5.10" departSpeed="0.00" departDelay="3.00" arrival="25364.00" arrivalLane="108404027#2_1" arrivalPos="134.79" arrivalSpeed="7.59" duration="86.00" routeLength="681.00" waitingTime="10.00" waitingCount="1" stopTime="0.00" timeLoss="25.40" rerouteNo="1" devices="tripinfo_veh14475 routing_veh14475" vType="DEFAULT_VEHTYPE" speedFactor="1.02" vaporized=""/>
    <tripinfo id="veh14423" depart="25223.00" departLane="-240348395#5_1" departPos="5.10" departSpeed="0.00" departDelay="0.00" arrival="25365.00" arrivalLane="240348395#2_1" arrivalPos="21.92" arrivalSpeed="14.98" duration="142.00" routeLength="531.21" waitingTime="78.00" waitingCount="2" stopTime="0.00" timeLoss="95.59" rerouteNo="1" devices="tripinfo_veh14423 routing_veh14423" vType="DEFAULT_VEHTYPE" speedFactor="1.12" vaporized=""/>
    <tripinfo id="truck3610" depart="25230.00" departLane="46961543_1" departPos="7.20" departSpeed="0.00" departDelay="0.00" arrival="25372.00" arrivalLane="28646388#0_1" arrivalPos="16.53" arrivalSpeed="7.88" duration="142.00" routeLength="1366.04" waitingTime="2.00" waitingCount="1" stopTime="0.00" timeLoss="21.86" rerouteNo="1" devices="tripinfo_truck3610 routing_truck3610" vType="truck_truck" speedFactor="1.02" vaporized=""/>
    <tripinfo id="veh14420" depart="25220.00" departLane="226872065#5_1" departPos="5.10" departSpeed="0.00" departDelay="0.00" arrival="25380.00" arrivalLane="-205759801#1_1" arrivalPos="7.84" arrivalSpeed="6.61" duration="160.00" routeLength="1111.70" waitingTime="0.00" waitingCount="0" stopTime="0.00" timeLoss="17.30" rerouteNo="1" devices="tripinfo_veh14420 routing_veh14420" vType="DEFAULT_VEHTYPE" speedFactor="0.95" vaporized=""/>
    <tripinfo id="truck3634" depart="25302.00" departLane="238870176#0_1" departPos="7.20" departSpeed="0.00" departDelay="0.00" arrival="25382.00" arrivalLane="-190438079#0_1" arrivalPos="61.53" arrivalSpeed="7.64" duration="80.00" routeLength="515.97" waitingTime="2.00" waitingCount="1" stopTime="0.00" timeLoss="24.19" rerouteNo="1" devices="tripinfo_truck3634 routing_truck3634" vType="truck_truck" speedFactor="0.97" vaporized=""/>
    <tripinfo id="truck3604" depart="25212.00" departLane="97301292#1_1" departPos="7.20" departSpeed="0.00" departDelay="0.00" arrival="25394.00" arrivalLane="150554190#1_1" arrivalPos="33.32" arrivalSpeed="8.45" duration="182.00" routeLength="1011.09" waitingTime="41.00" waitingCount="3" stopTime="0.00" timeLoss="77.50" rerouteNo="1" devices="tripinfo_truck3604 routing_truck3604" vType="truck_truck" speedFactor="1.07" vaporized=""/>
    <tripinfo id="veh14462" depart="25262.00" departLane="240348395#4_1" departPos="5.10" departSpeed="0.00" departDelay="0.00" arrival="25399.00" arrivalLane="155860730#1_0" arrivalPos="110.31" arrivalSpeed="9.83" duration="137.00" routeLength="1064.26" waitingTime="18.00" waitingCount="2" stopTime="0.00" timeLoss="38.15" rerouteNo="1" devices="tripinfo_veh14462 routing_veh14462" vType="DEFAULT_VEHTYPE" speedFactor="0.80" vaporized=""/>
    <tripinfo id="veh14434" depart="25234.00" departLane="-205103380#2_1" departPos="5.10" departSpeed="0.00" departDelay="0.00" arrival="25401.00" arrivalLane="205759812_1" arrivalPos="214.78" arrivalSpeed="7.27" duration="167.00" routeLength="723.66" waitingTime="53.00" waitingCount="3" stopTime="0.00" timeLoss="73.23" rerouteNo="1" devices="tripinfo_veh14434 routing_veh14434" vType="DEFAULT_VEHTYPE" speedFactor="0.93" vaporized=""/>
    <tripinfo id="veh14421" depart="25221.00" departLane="155860730#2_0" departPos="5.10" departSpeed="0.00" departDelay="0.00" arrival="25402.00" arrivalLane="172333241#0_0" arrivalPos="42.17" arrivalSpeed="12.59" duration="181.00" routeLength="2158.59" waitingTime="2.00" waitingCount="1" stopTime="0.00" timeLoss="23.55" rerouteNo="1" devices="tripinfo_veh14421 routing_veh14421" vType="DEFAULT_VEHTYPE" speedFactor="0.99" vaporized=""/>
    <tripinfo id="truck3650" depart="25350.00" departLane="175558914#6_1" departPos="7.20" departSpeed="0.00" departDelay="0.00" arrival="25406.00" arrivalLane="189764716#1_1" arrivalPos="59.09" arrivalSpeed="12.90" duration="56.00" routeLength="469.33" waitingTime="3.00" waitingCount="1" stopTime="0.00" timeLoss="19.54" rerouteNo="1" devices="tripinfo_truck3650 routing_truck3650" vType="truck_truck" speedFactor="0.94" vaporized=""/>
    <tripinfo id="moto203" depart="25308.00" departLane="-214586680_1" departPos="2.30" departSpeed="0.00" departDelay="0.00" arrival="25413.00" arrivalLane="218025853#1_1" arrivalPos="2.99" arrivalSpeed="4.57" duration="105.00" routeLength="577.30" waitingTime="3.00" waitingCount="1" stopTime="0.00" timeLoss="26.22" rerouteNo="1" devices="tripinfo_moto203 routing_moto203" vType="moto_motorcycle" speedFactor="0.90" vaporized=""/>
    <tripinfo id="veh14413" depart="25213.00" departLane="-30158429#0_1" departPos="5.10" departSpeed="0.00" departDelay="0.00" arrival="25416.00" arrivalLane="-215925855_1" arrivalPos="31.82" arrivalSpeed="14.48" duration="203.00" routeLength="1668.54" waitingTime="0.00" waitingCount="0" stopTime="0.00" timeLoss="22.94" rerouteNo="1" devices="tripinfo_veh14413 routing_veh14413" vType="DEFAULT_VEHTYPE" speedFactor="1.08" vaporized=""/>
    <tripinfo id="veh14513" depart="25313.00" departLane="-24534083#0_1" departPos="2.72" departSpeed="0.00" departDelay="0.00" arrival="25423.00" arrivalLane="150837582#1_2" arrivalPos="140.94" arrivalSpeed="11.66" duration="110.00" routeLength="729.83" waitingTime="2.00" waitingCount="1" stopTime="0.00" timeLoss="19.99" rerouteNo="1" devices="tripinfo_veh14513 routing_veh14513" vType="DEFAULT_VEHTYPE" speedFactor="0.91" vaporized=""/>
    <tripinfo id="truck3622" depart="25266.00" departLane="1101405928#0_1" departPos="2.37" departSpeed="0.00" departDelay="0.00" arrival="25431.00" arrivalLane="532149775#0_0" arrivalPos="44.99" arrivalSpeed="13.14" duration="165.00" routeLength="1357.53" waitingTime="18.00" waitingCount="2" stopTime="0.00" timeLoss="44.98" rerouteNo="1" devices="tripinfo_truck3622 routing_truck3622" vType="truck_truck" speedFactor="0.98" vaporized=""/>
    <tripinfo id="veh14492" depart="25292.00" departLane="-38152916#1_0" departPos="5.10" departSpeed="0.00" departDelay="0.00" arrival="25433.00" arrivalLane="35952188_1" arrivalPos="83.02" arrivalSpeed="8.62" duration="141.00" routeLength="825.24" waitingTime="46.00" waitingCount="1" stopTime="0.00" timeLoss="59.18" rerouteNo="1" devices="tripinfo_veh14492 routing_veh14492" vType="DEFAULT_VEHTYPE" speedFactor="1.09" vaporized=""/>
    <tripinfo id="moto201" depart="25236.00" departLane="192428988#0_1" departPos="2.30" departSpeed="0.00" departDelay="0.00" arrival="25435.00" arrivalLane="500261497_3" arrivalPos="72.37" arrivalSpeed="8.90" duration="199.00" routeLength="1298.70" waitingTime="58.00" waitingCount="5" stopTime="0.00" timeLoss="95.34" rerouteNo="1" devices="tripinfo_moto201 routing_moto201" vType="moto_motorcycle" speedFactor="0.98" vaporized=""/>
    <tripinfo id="bike3022" depart="25226.00" departLane="149899941_0" departPos="1.70" departSpeed="0.00" departDelay="0.93" arrival="25437.00" arrivalLane="150851814#5_1" arrivalPos="113.27" arrivalSpeed="6.16" duration="211.00" routeLength="1045.41" waitingTime="31.00" waitingCount="2" stopTime="0.00" timeLoss="50.66" rerouteNo="1" devices="tripinfo_bike3022 routing_bike3022" vType="bike_bicycle" speedFactor="1.18" vaporized=""/>
    <tripinfo id="veh14486" depart="25286.00" departLane="208424711#0_1" departPos="5.10" departSpeed="0.00" departDelay="0.00" arrival="25440.00" arrivalLane="-266188220#1_1" arrivalPos="2.82" arrivalSpeed="6.90" duration="154.00" routeLength="985.42" waitingTime="0.00" waitingCount="0" stopTime="0.00" timeLoss="21.76" rerouteNo="1" devices="tripinfo_veh14486 routing_veh14486" vType="DEFAULT_VEHTYPE" speedFactor="0.86" vaporized=""/>
    <tripinfo id="veh14414" depart="25214.00" departLane="27315344#1_0" departPos="5.10" departSpeed="0.00" departDelay="0.00" arrival="25442.00" arrivalLane="-366073485#1_1" arrivalPos="27.62" arrivalSpeed="6.70" duration="228.00" routeLength="1484.36" waitingTime="70.00" waitingCount="3" stopTime="0.00" timeLoss="103.62" rerouteNo="1" devices="tripinfo_veh14414 routing_veh14414" vType="DEFAULT_VEHTYPE" speedFactor="0.94" vaporized=""/>
    <tripinfo id="veh14464" depart="25264.00" departLane="165720108#3_0" departPos="5.10" departSpeed="0.00" departDelay="0.00" arrival="25444.00" arrivalLane="190438083#1_1" arrivalPos="0.20" arrivalSpeed="11.59" duration="180.00" routeLength="1286.12" waitingTime="33.00" waitingCount="2" stopTime="0.00" timeLoss="70.64" rerouteNo="1" devices="tripinfo_veh14464 routing_veh14464" vType="DEFAULT_VEHTYPE" speedFactor="0.92" vaporized=""/>
    <tripinfo id="truck3603" depart="25209.00" departLane="189765377_1" departPos="7.20" departSpeed="0.00" departDelay="0.00" arrival="25444.00" arrivalLane="-77668862#0_0" arrivalPos="15.57" arrivalSpeed="7.29" duration="235.00" routeLength="2108.76" waitingTime="35.00" waitingCount="3" stopTime="0.00" timeLoss="77.48" rerouteNo="1" devices="tripinfo_truck3603 routing_truck3603" vType="truck_truck" speedFactor="0.99" vaporized=""/>
    <tripinfo id="veh14522" depart="25322.00" departLane="53175159#0_1" departPos="1.00" departSpeed="0.00" departDelay="0.00" arrival="25446.00" arrivalLane="42760868_3" arrivalPos="13.78" arrivalSpeed="12.49" duration="124.00" routeLength="990.08" waitingTime="17.00" waitingCount="2" stopTime="0.00" timeLoss="52.05" rerouteNo="1" devices="tripinfo_veh14522 routing_veh14522" vType="DEFAULT_VEHTYPE" speedFactor="1.12" vaporized=""/>
    <tripinfo id="truck3615" depart="25245.00" departLane="269040904_1" departPos="7.20" departSpeed="0.00" departDelay="0.00" arrival="25450.00" arrivalLane="150694624#3_1" arrivalPos="101.37" arrivalSpeed="7.07" duration="205.00" routeLength="1230.46" waitingTime="53.00" waitingCount="1" stopTime="0.00" timeLoss="75.92" rerouteNo="1" devices="tripinfo_truck3615 routing_truck3615" vType="truck_truck" speedFactor="0.92" vaporized=""/>
    <tripinfo id="veh14559" depart="25359.00" departLane="229619682#1_2" departPos="5.10" departSpeed="0.00" departDelay="0.00" arrival="25453.00" arrivalLane="-205422863#0_1" arrivalPos="32.17" arrivalSpeed="8.71" duration="94.00" routeLength="704.45" waitingTime="13.00" waitingCount="1" stopTime="0.00" timeLoss="32.34" rerouteNo="1" devices="tripinfo_veh14559 routing_veh14559" vType="DEFAULT_VEHTYPE" speedFactor="1.11" vaporized=""/>
    <tripinfo id="veh14584" depart="25384.00" departLane="-369239271#2_1" departPos="5.10" departSpeed="0.00" departDelay="0.00" arrival="25453.00" arrivalLane="148357182#3_0" arrivalPos="0.20" arrivalSpeed="6.73" duration="69.00" routeLength="507.22" waitingTime="3.00" waitingCount="1" stopTime="0.00" timeLoss="15.97" rerouteNo="1" devices="tripinfo_veh14584 routing_veh14584" vType="DEFAULT_VEHTYPE" speedFactor="1.17" vaporized=""/>
    <tripinfo id="truck3669" depart="25407.00" departLane="40586130#3_1" departPos="7.20" departSpeed="0.00" departDelay="0.00" arrival="25457.00" arrivalLane="-190340311_0" arrivalPos="5.46" arrivalSpeed="14.81" duration="50.00" routeLength="607.51" waitingTime="0.00" waitingCount="0" stopTime="0.00" timeLoss="9.04" rerouteNo="1" devices="tripinfo_truck3669 routing_truck3669" vType="truck_truck" speedFactor="1.11" vaporized=""/>
    <tripinfo id="veh14447" depart="25247.00" departLane="359726683#0_1" departPos="5.10" departSpeed="0.00" departDelay="0.00" arrival="25461.00" arrivalLane="150554198#1_1" arrivalPos="72.07" arrivalSpeed="7.41" duration="214.00" routeLength="1468.63" waitingTime="11.00" waitingCount="2" stopTime="0.00" timeLoss="40.50" rerouteNo="1" devices="tripinfo_veh14447 routing_veh14447" vType="DEFAULT_VEHTYPE" speedFactor="1.00" vaporized=""/>
    <tripinfo id="veh14611" depart="25411.00" departLane="191640848#0.11_1" departPos="5.10" departSpeed="0.00" departDelay="0.00" arrival="25470.00" arrivalLane="150837582#3_3" arrivalPos="75.28" arrivalSpeed="14.33" duration="59.00" routeLength="512.47" waitingTime="10.00" waitingCount="1" stopTime="0.00" timeLoss="21.64" rerouteNo="1" devices="tripinfo_veh14611 routing_veh14611" vType="DEFAULT_VEHTYPE" speedFactor="1.04" vaporized=""/>
    <tripinfo id="truck3620" depart="25260.00" departLane="638123367#1_1" departPos="7.20" departSpeed="0.00" departDelay="0.00" arrival="25472.00" arrivalLane="187061084_2" arrivalPos="49.92" arrivalSpeed="13.73" duration="212.00" routeLength="1932.74" waitingTime="17.00" waitingCount="1" stopTime="0.00" timeLoss="64.23" rerouteNo="1" devices="tripinfo_truck3620 routing_truck3620" vType="truck_truck" speedFactor="1.00" vaporized=""/>
    <tripinfo id="veh14581" depart="25381.00" departLane="57846800#1_0" departPos="5.10" departSpeed="0.00" departDelay="0.00" arrival="25475.00" arrivalLane="4492379#0_1" arrivalPos="135.71" arrivalSpeed="8.63" duration="94.00" routeLength="710.51" waitingTime="0.00" waitingCount="0" stopTime="0.00" timeLoss="10.72" rerouteNo="1" devices="tripinfo_veh14581 routing_veh14581" vType="DEFAULT_VEHTYPE" speedFactor="1.04" vaporized=""/>
    <tripinfo id="veh14422" depart="25222.00" departLane="377853509#0_1" departPos="5.10" departSpeed="0.00" departDelay="0.00" arrival="25493.00" arrivalLane="-27870084#1_0" arrivalPos="6.67" arrivalSpeed="10.09" duration="271.00" routeLength="2236.37" waitingTime="60.00" waitingCount="2" stopTime="0.00" timeLoss="94.17" rerouteNo="1" devices="tripinfo_veh14422 routing_veh14422" vType="DEFAULT_VEHTYPE" speedFactor="0.93" vaporized=""/>
    <tripinfo id="veh14527" depart="25327.00" departLane="253488996_1" departPos="5.10" departSpeed="0.00" departDelay="0.00" arrival="25503.00" arrivalLane="155860730#1_0" arrivalPos="110.31" arrivalSpeed="11.04" duration="176.00" routeLength="1167.55" waitingTime="49.00" waitingCount="3" stopTime="0.00" timeLoss="78.61" rerouteNo="1" devices="tripinfo_veh14527 routing_veh14527" vType="DEFAULT_VEHTYPE" speedFactor="0.89" vaporized=""/>
    <tripinfo id="truck3627" depart="25281.00" departLane="1101405927#2_1" departPos="7.20" departSpeed="0.00" departDelay="0.00" arrival="25510.00" arrivalLane="50283048#0_1" arrivalPos="11.36" arrivalSpeed="13.75" duration="229.00" routeLength="1358.69" waitingTime="66.00" waitingCount="3" stopTime="0.00" timeLoss="109.97" rerouteNo="1" devices="tripinfo_truck3627 routing_truck3627" vType="truck_truck" speedFactor="0.99" vaporized=""/>
    <tripinfo id="veh14551" depart="25351.00" departLane="-502060955#0_1" departPos="5.10" departSpeed="0.00" departDelay="0.00" arrival="25511.00" arrivalLane="150857994#1_1" arrivalPos="39.95" arrivalSpeed="8.01" duration="160.00" routeLength="875.88" waitingTime="45.00" waitingCount="2" stopTime="0.00" timeLoss="69.62" rerouteNo="1" devices="tripinfo_veh14551 routing_veh14551" vType="DEFAULT_VEHTYPE" speedFactor="1.05" vaporized=""/>
    <tripinfo id="veh14585" depart="25385.00" departLane="24532277#0_0" departPos="5.10" departSpeed="0.00" departDelay="0.00" arrival="25513.00" arrivalLane="364071761#1_1" arrivalPos="33.79" arrivalSpeed="8.85" duration="128.00" routeLength="1228.92" waitingTime="0.00" waitingCount="0" stopTime="0.00" timeLoss="20.80" rerouteNo="1" devices="tripinfo_veh14585 routing_veh14585" vType="DEFAULT_VEHTYPE" speedFactor="1.10" vaporized=""/>
    <tripinfo id="veh14443" depart="25243.00" departLane="-922053733#0_1" departPos="5.10" departSpeed="0.00" departDelay="0.00" arrival="25514.00" arrivalLane="8067182#1_0" arrivalPos="5.74" arrivalSpeed="11.64" duration="271.00" routeLength="1747.36" waitingTime="77.00" waitingCount="7" stopTime="0.00" timeLoss="133.34" rerouteNo="1" devices="tripinfo_veh14443 routing_veh14443" vType="DEFAULT_VEHTYPE" speedFactor="0.96" vaporized=""/>
    <tripinfo id="veh14619" depart="25419.00" departLane="-24608196#2_1" departPos="5.10" departSpeed="0.00" departDelay="0.00" arrival="25520.00" arrivalLane="315426060#2_0" arrivalPos="11.87" arrivalSpeed="11.71" duration="101.00" routeLength="984.07" waitingTime="0.00" waitingCount="0" stopTime="0.00" timeLoss="12.43" rerouteNo="1" devices="tripinfo_veh14619 routing_veh14619" vType="DEFAULT_VEHTYPE" speedFactor="0.93" vaporized=""/>
    <tripinfo id="truck3624" depart="25272.00" departLane="251158322#1_2" departPos="7.20" departSpeed="0.00" departDelay="0.00" arrival="25526.00" arrivalLane="14104725#2_0" arrivalPos="2.22" arrivalSpeed="8.40" duration="254.00" routeLength="794.41" waitingTime="134.00" waitingCount="5" stopTime="0.00" timeLoss="185.11" rerouteNo="1" devices="tripinfo_truck3624 routing_truck3624" vType="truck_truck" speedFactor="1.08" vaporized=""/>
    <tripinfo id="veh14625" depart="25443.00" departLane="-1064398602#0_1" departPos="5.10" departSpeed="0.00" departDelay="18.00" arrival="25527.00" arrivalLane="31045126#1_1" arrivalPos="85.93" arrivalSpeed="7.50" duration="84.00" routeLength="529.35" waitingTime="14.00" waitingCount="1" stopTime="0.00" timeLoss="28.05" rerouteNo="1" devices="tripinfo_veh14625 routing_veh14625" vType="DEFAULT_VEHTYPE" speedFactor="0.98" vaporized=""/>
    <tripinfo id="veh14402" depart="25202.00" departLane="360785921#1_0" departPos="0.14" departSpeed="0.00" departDelay="0.00" arrival="25529.00" arrivalLane="-369239271#1_1" arrivalPos="58.32" arrivalSpeed="7.97" duration="327.00" routeLength="3002.71" waitingTime="53.00" waitingCount="4" stopTime="0.00" timeLoss="91.52" rerouteNo="1" devices="tripinfo_veh14402 routing_veh14402" vType="DEFAULT_VEHTYPE" speedFactor="0.97" vaporized=""/>
    <tripinfo id="veh14688" depart="25488.00" departLane="195137102#1_1" departPos="5.10" departSpeed="0.00" departDelay="0.00" arrival="25529.00" arrivalLane="150661833#0_1" arrivalPos="58.58" arrivalSpeed="7.70" duration="41.00" routeLength="289.13" waitingTime="0.00" waitingCount="0" stopTime="0.00" timeLoss="4.35" rerouteNo="1" devices="tripinfo_veh14688 routing_veh14688" vType="DEFAULT_VEHTYPE" speedFactor="0.96" vaporized=""/>
    <tripinfo id="truck3618" depart="25254.00" departLane="35929662_0" departPos="7.20" departSpeed="0.00" departDelay="0.00" arrival="25531.00" arrivalLane="276412658_3" arrivalPos="31.00" arrivalSpeed="13.44" duration="277.00" routeLength="1738.27" waitingTime="90.00" waitingCount="6" stopTime="0.00" timeLoss="150.06" rerouteNo="1" devices="tripinfo_truck3618 routing_truck3618" vType="truck_truck" speedFactor="0.99" vaporized=""/>
    <tripinfo id="veh14427" depart="25227.00" departLane="164152502#18.7_0" departPos="5.10" departSpeed="0.00" departDelay="0.00" arrival="25535.00" arrivalLane="23566451#1_0" arrivalPos="0.20" arrivalSpeed="7.82" duration="308.00" routeLength="1045.25" waitingTime="180.00" waitingCount="6" stopTime="0.00" timeLoss="221.00" rerouteNo="1" devices="tripinfo_veh14427 routing_veh14427" vType="DEFAULT_VEHTYPE" speedFactor="0.99" vaporized=""/>
    <tripinfo id="truck3608" depart="25224.00" departLane="195137102#1_1" departPos="7.20" departSpeed="0.00" departDelay="0.00" arrival="25540.00" arrivalLane="500261498_1" arrivalPos="14.75" arrivalSpeed="14.62" duration="316.00" routeLength="2052.86" waitingTime="74.00" waitingCount="5" stopTime="0.00" timeLoss="152.33" rerouteNo="1" devices="tripinfo_truck3608 routing_truck3608" vType="truck_truck" speedFactor="1.08" vaporized=""/>
    <tripinfo id="moto200" depart="25200.00" departLane="187057791#1_1" departPos="2.30" departSpeed="0.00" departDelay="0.00" arrival="25542.00" arrivalLane="-39649662#1_1" arrivalPos="75.28" arrivalSpeed="6.55" duration="342.00" routeLength="3717.93" waitingTime="8.00" waitingCount="2" stopTime="0.00" timeLoss="63.62" rerouteNo="1" devices="tripinfo_moto200 routing_moto200" vType="moto_motorcycle" speedFactor="1.08" vaporized=""/>
    <tripinfo id="veh14578" depart="25378.00" departLane="184156814#0_0" departPos="5.10" departSpeed="0.00" departDelay="0.00" arrival="25543.00" arrivalLane="19354458#2_0" arrivalPos="0.20" arrivalSpeed="9.68" duration="165.00" routeLength="1447.52" waitingTime="0.00" waitingCount="0" stopTime="0.00" timeLoss="33.18" rerouteNo="1" devices="tripinfo_veh14578 routing_veh14578" vType="DEFAULT_VEHTYPE" speedFactor="1.06" vaporized=""/>
    <tripinfo id="veh14643" depart="25443.00" departLane="-169689362#2_1" departPos="5.10" departSpeed="0.00" departDelay="0.00" arrival="25547.00" arrivalLane="235391021_0" arrivalPos="19.10" arrivalSpeed="11.36" duration="104.00" routeLength="766.78" waitingTime="0.00" waitingCount="0" stopTime="0.00" timeLoss="11.42" rerouteNo="1" devices="tripinfo_veh14643 routing_veh14643" vType="DEFAULT_VEHTYPE" speedFactor="0.89" vaporized=""/>
    <tripinfo id="veh14502" depart="25302.00" departLane="-149942614#1_1" departPos="0.20" departSpeed="0.00" departDelay="0.00" arrival="25550.00" arrivalLane="1055823708#0_1" arrivalPos="10.07" arrivalSpeed="8.05" duration="248.00" routeLength="1453.60" waitingTime="62.00" waitingCount="1" stopTime="0.00" timeLoss="88.45" rerouteNo="1" devices="tripinfo_veh14502 routing_veh14502" vType="DEFAULT_VEHTYPE" speedFactor="1.02" vaporized=""/>
    <tripinfo id="bike3068" depart="25390.00" departLane="19354464#1_0" departPos="1.70" departSpeed="0.00" departDelay="0.15" arrival="25550.00" arrivalLane="270655652#1_0" arrivalPos="123.38" arrivalSpeed="5.58" duration="160.00" routeLength="821.66" waitingTime="0.00" waitingCount="0" stopTime="0.00" timeLoss="13.68" rerouteNo="1" devices="tripinfo_bike3068 routing_bike3068" vType="bike_bicycle" speedFactor="1.05" vaporized=""/>
    <tripinfo id="truck3702" depart="25506.00" departLane="269017591#0_0" departPos="7.20" departSpeed="0.00" departDelay="0.00" arrival="25550.00" arrivalLane="27287268_1" arrivalPos="105.06" arrivalSpeed="8.66" duration="44.00" routeLength="338.91" waitingTime="0.00" waitingCount="0" stopTime="0.00" timeLoss="9.93" rerouteNo="1" devices="tripinfo_truck3702 routing_truck3702" vType="truck_truck" speedFactor="1.04" vaporized=""/>
    <tripinfo id="veh14593" depart="25393.00" departLane="270684568#9_1" departPos="5.10" departSpeed="0.00" departDelay="0.00" arrival="25551.00" arrivalLane="-150857993#1_1" arrivalPos="108.83" arrivalSpeed="7.59" duration="158.00" routeLength="1254.65" waitingTime="12.00" waitingCount="1" stopTime="0.00" timeLoss="51.05" rerouteNo="1" devices="tripinfo_veh14593 routing_veh14593" vType="DEFAULT_VEHTYPE" speedFactor="1.01" vaporized=""/>
    <tripinfo id="veh14501" depart="25301.00" departLane="-270655645#0_0" departPos="5.10" departSpeed="0.00" departDelay="0.00" arrival="25554.00" arrivalLane="-56185657#0_0" arrivalPos="60.22" arrivalSpeed="11.78" duration="253.00" routeLength="2388.27" waitingTime="16.00" waitingCount="1" stopTime="0.00" timeLoss="50.73" rerouteNo="1" devices="tripinfo_veh14501 routing_veh14501" vType="DEFAULT_VEHTYPE" speedFactor="0.87" vaporized=""/>
    <tripinfo id="veh14588" depart="25388.00" departLane="-240348395#6_1" departPos="4.08" departSpeed="0.00" departDelay="0.00" arrival="25556.00" arrivalLane="171935245#0_0" arrivalPos="59.36" arrivalSpeed="11.51" duration="168.00" routeLength="1613.35" waitingTime="1.00" waitingCount="1" stopTime="0.00" timeLoss="28.45" rerouteNo="1" devices="tripinfo_veh14588 routing_veh14588" vType="DEFAULT_VEHTYPE" speedFactor="0.92" vaporized=""/>
    <tripinfo id="truck3659" depart="25377.00" departLane="24554371#2_1" departPos="5.31" departSpeed="0.00" departDelay="0.00" arrival="25556.00" arrivalLane="253488947_3" arrivalPos="24.82" arrivalSpeed="13.15" duration="179.00" routeLength="1047.47" waitingTime="42.00" waitingCount="1" stopTime="0.00" timeLoss="63.04" rerouteNo="1" devices="tripinfo_truck3659 routing_truck3659" vType="truck_truck" speedFactor="0.99" vaporized=""/>
    <tripinfo id="truck3670" depart="25410.00" departLane="-245941530#3_0" departPos="7.20" departSpeed="0.00" departDelay="0.00" arrival="25558.00" arrivalLane="53175159#6_1" arrivalPos="8.18" arrivalSpeed="8.39" duration="148.00" routeLength="855.70" waitingTime="33.00" waitingCount="1" stopTime="0.00" timeLoss="52.93" rerouteNo="1" devices="tripinfo_truck3670 routing_truck3670" vType="truck_truck" speedFactor="1.01" vaporized=""/>
    <tripinfo id="veh14598" depart="25398.00" departLane="189032455_0" departPos="5.10" departSpeed="0.00" departDelay="0.00" arrival="25562.00" arrivalLane="7980452#1_1" arrivalPos="11.62" arrivalSpeed="7.93" duration="164.00" routeLength="912.43" waitingTime="52.00" waitingCount="3" stopTime="0.00" timeLoss="86.81" rerouteNo="1" devices="tripinfo_veh14598 routing_veh14598" vType="DEFAULT_VEHTYPE" speedFactor="0.97" vaporized=""/>
    <tripinfo id="truck3611" depart="25233.00" departLane="35834155#0_0" departPos="1.48" departSpeed="0.00" departDelay="0.00" arrival="25565.00" arrivalLane="227205268#1_0" arrivalPos="337.41" arrivalSpeed="12.90" duration="332.00" routeLength="3132.10" waitingTime="52.00" waitingCount="2" stopTime="0.00" timeLoss="89.09" rerouteNo="1" devices="tripinfo_truck3611 routing_truck3611" vType="truck_truck" speedFactor="0.93" vaporized=""/>
    <tripinfo id="veh14470" depart="25270.00" departLane="358953096_2" departPos="5.10" departSpeed="0.00" departDelay="0.00" arrival="25566.00" arrivalLane="-402016793_0" arrivalPos="89.59" arrivalSpeed="6.96" duration="296.00" routeLength="1675.37" waitingTime="63.00" waitingCount="4" stopTime="0.00" timeLoss="109.03" rerouteNo="1" devices="tripinfo_veh14470 routing_veh14470" vType="DEFAULT_VEHTYPE" speedFactor="0.98" vaporized=""/>