<?xml version="1.0" encoding="UTF-8"?>

<!-- generated on Wed Nov 29 22:13:46 2023 by Eclipse SUMO sumo Version 1.8.0
<configuration xmlns:xsi="http://www.w3.org/2001/XMLSchema-instance" xsi:noNamespaceSchemaLocation="http://sumo.dlr.de/xsd/sumoConfiguration.xsd">

    <input>
        <net-file value="/home/inestp01/rl_traffic_signal_optimization/models/20230718_sumo_ma/osm.net.xml,/home/inestp01/rl_traffic_signal_optimization/models/20230718_sumo_ma/pt/gtfs_pt_stops.add.xml,/home/inestp01/rl_traffic_signal_optimization/models/20230718_sumo_ma/pt/stops.add.xml,/home/inestp01/rl_traffic_signal_optimization/models/20230718_sumo_ma/pt/vtypes.xml,/home/inestp01/rl_traffic_signal_optimization/models/20230718_sumo_ma/osm.poly.xml"/>
        <route-files value="/home/inestp01/rl_traffic_signal_optimization/models/20230718_sumo_ma/veh_routes.xml,/home/inestp01/rl_traffic_signal_optimization/models/20230718_sumo_ma/pt/gtfs_pt_vehicles.xml,/home/inestp01/rl_traffic_signal_optimization/models/20230718_sumo_ma/truck_routes.xml,/home/inestp01/rl_traffic_signal_optimization/models/20230718_sumo_ma/bicycle_routes.xml,/home/inestp01/rl_traffic_signal_optimization/models/20230718_sumo_ma/motorcycle_routes.xml"/>
    </input>

    <output>
        <tripinfo-output value="{name}-tripinfo.xml"/>
    </output>

    <time>
        <begin value=" 25200"/>
    </time>

    <processing>
        <time-to-teleport value="300"/>
        <waiting-time-memory value="1000"/>
        <max-depart-delay value="-1"/>
    </processing>

    <traci_server>
        <remote-port value="41363"/>
    </traci_server>

    <random_number>
        <random value="true"/>
    </random_number>

</configuration>
-->

<tripinfos xmlns:xsi="http://www.w3.org/2001/XMLSchema-instance" xsi:noNamespaceSchemaLocation="http://sumo.dlr.de/xsd/tripinfo_file.xsd">
    <tripinfo id="veh14410" depart="25210.00" departLane="-334457597#2_1" departPos="5.10" departSpeed="0.00" departDelay="0.00" arrival="25297.00" arrivalLane="-532149775#2_0" arrivalPos="77.75" arrivalSpeed="11.99" duration="87.00" routeLength="567.45" waitingTime="7.00" waitingCount="1" stopTime="0.00" timeLoss="21.42" rerouteNo="1" devices="tripinfo_veh14410 routing_veh14410" vType="DEFAULT_VEHTYPE" speedFactor="0.88" vaporized=""/>
    <tripinfo id="veh14439" depart="25239.00" departLane="121805100_1" departPos="0.20" departSpeed="0.00" departDelay="0.00" arrival="25297.00" arrivalLane="150393267#7_0" arrivalPos="74.90" arrivalSpeed="14.17" duration="58.00" routeLength="617.62" waitingTime="0.00" waitingCount="0" stopTime="0.00" timeLoss="13.03" rerouteNo="1" devices="tripinfo_veh14439 routing_veh14439" vType="DEFAULT_VEHTYPE" speedFactor="1.08" vaporized=""/>
    <tripinfo id="veh14406" depart="25206.00" departLane="-205103380#1_1" departPos="0.75" departSpeed="0.00" departDelay="0.00" arrival="25306.00" arrivalLane="-39649662#3_1" arrivalPos="39.11" arrivalSpeed="7.47" duration="100.00" routeLength="733.94" waitingTime="2.00" waitingCount="1" stopTime="0.00" timeLoss="22.20" rerouteNo="1" devices="tripinfo_veh14406 routing_veh14406" vType="DEFAULT_VEHTYPE" speedFactor="0.98" vaporized=""/>
    <tripinfo id="bike3029" depart="25251.00" departLane="-24549661#0_0" departPos="1.70" departSpeed="0.00" departDelay="0.85" arrival="25316.00" arrivalLane="-24608196#4_1" arrivalPos="59.23" arrivalSpeed="5.53" duration="65.00" routeLength="327.00" waitingTime="0.00" waitingCount="0" stopTime="0.00" timeLoss="5.89" rerouteNo="1" devices="tripinfo_bike3029 routing_bike3029" vType="bike_bicycle" speedFactor="1.03" vaporized=""/>
    <tripinfo id="veh14436" depart="25236.00" departLane="27247873_0" departPos="5.10" departSpeed="0.00" departDelay="0.00" arrival="25360.00" arrivalLane="500527046#1_1" arrivalPos="14.13" arrivalSpeed="13.86" duration="124.00" routeLength="1122.79" waitingTime="15.00" waitingCount="2" stopTime="0.00" timeLoss="39.99" rerouteNo="1" devices="tripinfo_veh14436 routing_veh14436" vType="DEFAULT_VEHTYPE" speedFactor="1.04" vaporized=""/>
    <tripinfo id="veh14420" depart="25220.00" departLane="226872065#5_1" departPos="5.10" departSpeed="0.00" departDelay="0.00" arrival="25364.00" arrivalLane="-205759801#1_1" arrivalPos="7.84" arrivalSpeed="6.26" duration="144.00" routeLength="1111.70" waitingTime="0.00" waitingCount="0" stopTime="0.00" timeLoss="16.53" rerouteNo="1" devices="tripinfo_veh14420 routing_veh14420" vType="DEFAULT_VEHTYPE" speedFactor="1.06" vaporized=""/>
    <tripinfo id="veh14423" depart="25223.00" departLane="-240348395#5_1" departPos="5.10" departSpeed="0.00" departDelay="0.00" arrival="25365.00" arrivalLane="240348395#2_1" arrivalPos="21.92" arrivalSpeed="13.36" duration="142.00" routeLength="531.21" waitingTime="76.00" waitingCount="2" stopTime="0.00" timeLoss="92.06" rerouteNo="1" devices="tripinfo_veh14423 routing_veh14423" vType="DEFAULT_VEHTYPE" speedFactor="1.04" vaporized=""/>
    <tripinfo id="veh14475" depart="25278.00" departLane="53175060#2_2" departPos="5.10" departSpeed="0.00" departDelay="3.00" arrival="25365.00" arrivalLane="108404027#2_1" arrivalPos="134.79" arrivalSpeed="8.23" duration="87.00" routeLength="681.00" waitingTime="12.00" waitingCount="1" stopTime="0.00" timeLoss="26.39" rerouteNo="1" devices="tripinfo_veh14475 routing_veh14475" vType="DEFAULT_VEHTYPE" speedFactor="1.01" vaporized=""/>
    <tripinfo id="truck3634" depart="25302.00" departLane="238870176#0_1" departPos="7.20" departSpeed="0.00" departDelay="0.00" arrival="25380.00" arrivalLane="-190438079#0_1" arrivalPos="61.53" arrivalSpeed="8.03" duration="78.00" routeLength="515.97" waitingTime="1.00" waitingCount="1" stopTime="0.00" timeLoss="27.09" rerouteNo="1" devices="tripinfo_truck3634 routing_truck3634" vType="truck_truck" speedFactor="1.03" vaporized=""/>
    <tripinfo id="veh14421" depart="25221.00" departLane="155860730#2_0" departPos="5.10" departSpeed="0.00" departDelay="0.00" arrival="25393.00" arrivalLane="172333241#0_0" arrivalPos="42.17" arrivalSpeed="13.36" duration="172.00" routeLength="2158.59" waitingTime="2.00" waitingCount="1" stopTime="0.00" timeLoss="20.69" rerouteNo="1" devices="tripinfo_veh14421 routing_veh14421" vType="DEFAULT_VEHTYPE" speedFactor="1.03" vaporized=""/>
    <tripinfo id="veh14462" depart="25262.00" departLane="240348395#4_1" departPos="5.10" departSpeed="0.00" departDelay="0.00" arrival="25396.00" arrivalLane="155860730#1_0" arrivalPos="110.31" arrivalSpeed="11.94" duration="134.00" routeLength="1064.26" waitingTime="26.00" waitingCount="2" stopTime="0.00" timeLoss="49.12" rerouteNo="1" devices="tripinfo_veh14462 routing_veh14462" vType="DEFAULT_VEHTYPE" speedFactor="0.92" vaporized=""/>
    <tripinfo id="truck3604" depart="25212.00" departLane="97301292#1_1" departPos="7.20" departSpeed="0.00" departDelay="0.00" arrival="25396.00" arrivalLane="150554190#1_1" arrivalPos="33.32" arrivalSpeed="7.80" duration="184.00" routeLength="1011.09" waitingTime="31.00" waitingCount="3" stopTime="0.00" timeLoss="65.04" rerouteNo="1" devices="tripinfo_truck3604 routing_truck3604" vType="truck_truck" speedFactor="0.95" vaporized=""/>
    <tripinfo id="veh14434" depart="25234.00" departLane="-205103380#2_1" departPos="5.10" departSpeed="0.00" departDelay="0.00" arrival="25401.00" arrivalLane="205759812_1" arrivalPos="214.78" arrivalSpeed="6.84" duration="167.00" routeLength="723.66" waitingTime="51.00" waitingCount="3" stopTime="0.00" timeLoss="73.19" rerouteNo="1" devices="tripinfo_veh14434 routing_veh14434" vType="DEFAULT_VEHTYPE" speedFactor="0.94" vaporized=""/>
    <tripinfo id="truck3650" depart="25350.00" departLane="175558914#6_1" departPos="7.20" departSpeed="0.00" departDelay="0.00" arrival="25411.00" arrivalLane="189764716#1_1" arrivalPos="59.09" arrivalSpeed="14.73" duration="61.00" routeLength="469.33" waitingTime="2.00" waitingCount="2" stopTime="0.00" timeLoss="28.91" rerouteNo="1" devices="tripinfo_truck3650 routing_truck3650" vType="truck_truck" speedFactor="1.10" vaporized=""/>
    <tripinfo id="moto203" depart="25308.00" departLane="-214586680_1" departPos="2.30" departSpeed="0.00" departDelay="0.00" arrival="25413.00" arrivalLane="218025853#1_1" arrivalPos="2.99" arrivalSpeed="7.56" duration="105.00" routeLength="577.30" waitingTime="10.00" waitingCount="2" stopTime="0.00" timeLoss="31.77" rerouteNo="1" devices="tripinfo_moto203 routing_moto203" vType="moto_motorcycle" speedFactor="0.97" vaporized=""/>
    <tripinfo id="veh14469" depart="25269.00" departLane="429104325#1_2" departPos="5.10" departSpeed="0.00" departDelay="0.00" arrival="25425.00" arrivalLane="-253488999#0_1" arrivalPos="28.04" arrivalSpeed="13.19" duration="156.00" routeLength="1304.75" waitingTime="23.00" waitingCount="2" stopTime="0.00" timeLoss="50.12" rerouteNo="1" devices="tripinfo_veh14469 routing_veh14469" vType="DEFAULT_VEHTYPE" speedFactor="1.03" vaporized=""/>
    <tripinfo id="veh14486" depart="25286.00" departLane="208424711#0_1" departPos="5.10" departSpeed="0.00" departDelay="0.00" arrival="25428.00" arrivalLane="-266188220#1_1" arrivalPos="2.82" arrivalSpeed="7.23" duration="142.00" routeLength="985.42" waitingTime="2.00" waitingCount="1" stopTime="0.00" timeLoss="27.22" rerouteNo="1" devices="tripinfo_veh14486 routing_veh14486" vType="DEFAULT_VEHTYPE" speedFactor="0.99" vaporized=""/>
    <tripinfo id="truck3622" depart="25266.00" departLane="1101405928#0_1" departPos="2.37" departSpeed="0.00" departDelay="0.00" arrival="25429.00" arrivalLane="532149775#0_0" arrivalPos="44.99" arrivalSpeed="14.95" duration="163.00" routeLength="1357.53" waitingTime="21.00" waitingCount="2" stopTime="0.00" timeLoss="53.93" rerouteNo="1" devices="tripinfo_truck3622 routing_truck3622" vType="truck_truck" speedFactor="1.08" vaporized=""/>
    <tripinfo id="veh14413" depart="25213.00" departLane="-30158429#0_1" departPos="5.10" departSpeed="0.00" departDelay="0.00" arrival="25430.00" arrivalLane="-215925855_1" arrivalPos="31.82" arrivalSpeed="13.27" duration="217.00" routeLength="1668.54" waitingTime="0.00" waitingCount="0" stopTime="0.00" timeLoss="24.42" rerouteNo="1" devices="tripinfo_veh14413 routing_veh14413" vType="DEFAULT_VEHTYPE" speedFactor="1.01" vaporized=""/>
    <tripinfo id="veh14513" depart="25313.00" departLane="-24534083#0_1" departPos="2.72" departSpeed="0.00" departDelay="0.00" arrival="25431.00" arrivalLane="150837582#1_2" arrivalPos="140.94" arrivalSpeed="15.28" duration="118.00" routeLength="729.83" waitingTime="28.00" waitingCount="1" stopTime="0.00" timeLoss="44.60" rerouteNo="1" devices="tripinfo_veh14513 routing_veh14513" vType="DEFAULT_VEHTYPE" speedFactor="1.13" vaporized=""/>
    <tripinfo id="veh14492" depart="25292.00" departLane="-38152916#1_0" departPos="5.10" departSpeed="0.00" departDelay="0.00" arrival="25433.00" arrivalLane="35952188_1" arrivalPos="83.02" arrivalSpeed="9.00" duration="141.00" routeLength="825.24" waitingTime="44.00" waitingCount="1" stopTime="0.00" timeLoss="58.10" rerouteNo="1" devices="tripinfo_veh14492 routing_veh14492" vType="DEFAULT_VEHTYPE" speedFactor="1.08" vaporized=""/>
    <tripinfo id="truck3603" depart="25209.00" departLane="189765377_1" departPos="7.20" departSpeed="0.00" departDelay="0.00" arrival="25439.00" arrivalLane="-77668862#0_0" arrivalPos="15.57" arrivalSpeed="8.81" duration="230.00" routeLength="2108.76" waitingTime="42.00" waitingCount="3" stopTime="0.00" timeLoss="87.67" rerouteNo="1" devices="tripinfo_truck3603 routing_truck3603" vType="truck_truck" speedFactor="1.10" vaporized=""/>
    <tripinfo id="truck3610" depart="25230.00" departLane="46961543_1" departPos="7.20" departSpeed="0.00" departDelay="0.00" arrival="25441.00" arrivalLane="28646388#0_1" arrivalPos="16.53" arrivalSpeed="7.25" duration="211.00" routeLength="1366.04" waitingTime="59.00" waitingCount="1" stopTime="0.00" timeLoss="80.41" rerouteNo="1" devices="tripinfo_truck3610 routing_truck3610" vType="truck_truck" speedFactor="0.94" vaporized=""/>
    <tripinfo id="moto201" depart="25236.00" departLane="192428988#0_1" departPos="2.30" departSpeed="0.00" departDelay="0.00" arrival="25444.00" arrivalLane="500261497_3" arrivalPos="72.37" arrivalSpeed="9.64" duration="208.00" routeLength="1298.70" waitingTime="58.00" waitingCount="4" stopTime="0.00" timeLoss="96.21" rerouteNo="1" devices="tripinfo_moto201 routing_moto201" vType="moto_motorcycle" speedFactor="0.91" vaporized=""/>
    <tripinfo id="veh14464" depart="25264.00" departLane="165720108#3_0" departPos="5.10" departSpeed="0.00" departDelay="0.00" arrival="25445.00" arrivalLane="190438083#1_1" arrivalPos="0.20" arrivalSpeed="11.93" duration="181.00" routeLength="1286.12" waitingTime="33.00" waitingCount="3" stopTime="0.00" timeLoss="74.23" rerouteNo="1" devices="tripinfo_veh14464 routing_veh14464" vType="DEFAULT_VEHTYPE" speedFactor="0.94" vaporized=""/>
    <tripinfo id="veh14414" depart="25214.00" departLane="27315344#1_0" departPos="5.10" departSpeed="0.00" departDelay="0.00" arrival="25446.00" arrivalLane="-366073485#1_1" arrivalPos="27.62" arrivalSpeed="6.17" duration="232.00" routeLength="1484.36" waitingTime="60.00" waitingCount="3" stopTime="0.00" timeLoss="97.34" rerouteNo="1" devices="tripinfo_veh14414 routing_veh14414" vType="DEFAULT_VEHTYPE" speedFactor="0.86" vaporized=""/>
    <tripinfo id="veh14522" depart="25322.00" departLane="53175159#0_1" departPos="1.00" departSpeed="0.00" departDelay="0.00" arrival="25447.00" arrivalLane="42760868_3" arrivalPos="13.78" arrivalSpeed="11.77" duration="125.00" routeLength="990.08" waitingTime="13.00" waitingCount="2" stopTime="0.00" timeLoss="43.46" rerouteNo="1" devices="tripinfo_veh14522 routing_veh14522" vType="DEFAULT_VEHTYPE" speedFactor="1.00" vaporized=""/>
    <tripinfo id="bike3022" depart="25226.00" departLane="149899941_0" departPos="1.70" departSpeed="0.00" departDelay="0.93" arrival="25447.00" arrivalLane="150851814#5_1" arrivalPos="113.27" arrivalSpeed="5.34" duration="221.00" routeLength="1045.41" waitingTime="12.00" waitingCount="1" stopTime="0.00" timeLoss="31.51" rerouteNo="1" devices="tripinfo_bike3022 routing_bike3022" vType="bike_bicycle" speedFactor="0.92" vaporized=""/>
    <tripinfo id="truck3615" depart="25245.00" departLane="269040904_1" departPos="7.20" departSpeed="0.00" departDelay="0.00" arrival="25448.00" arrivalLane="150694624#3_1" arrivalPos="101.37" arrivalSpeed="7.81" duration="203.00" routeLength="1230.46" waitingTime="56.00" waitingCount="2" stopTime="0.00" timeLoss="85.25" rerouteNo="1" devices="tripinfo_truck3615 routing_truck3615" vType="truck_truck" speedFactor="1.00" vaporized=""/>
    <tripinfo id="veh14611" depart="25411.00" departLane="191640848#0.11_1" departPos="5.10" departSpeed="0.00" departDelay="0.00" arrival="25458.00" arrivalLane="150837582#3_3" arrivalPos="75.28" arrivalSpeed="13.77" duration="47.00" routeLength="512.47" waitingTime="0.00" waitingCount="0" stopTime="0.00" timeLoss="9.84" rerouteNo="1" devices="tripinfo_veh14611 routing_veh14611" vType="DEFAULT_VEHTYPE" speedFactor="1.05" vaporized=""/>
    <tripinfo id="veh14447" depart="25247.00" departLane="359726683#0_1" departPos="5.10" departSpeed="0.00" departDelay="0.00" arrival="25461.00" arrivalLane="150554198#1_1" arrivalPos="72.07" arrivalSpeed="8.34" duration="214.00" routeLength="1468.63" waitingTime="8.00" waitingCount="2" stopTime="0.00" timeLoss="41.81" rerouteNo="1" devices="tripinfo_veh14447 routing_veh14447" vType="DEFAULT_VEHTYPE" speedFactor="1.01" vaporized=""/>
    <tripinfo id="truck3669" depart="25407.00" departLane="40586130#3_1" departPos="7.20" departSpeed="0.00" departDelay="0.00" arrival="25461.00" arrivalLane="-190340311_0" arrivalPos="5.46" arrivalSpeed="13.29" duration="54.00" routeLength="607.51" waitingTime="0.00" waitingCount="0" stopTime="0.00" timeLoss="9.07" rerouteNo="1" devices="tripinfo_truck3669 routing_truck3669" vType="truck_truck" speedFactor="1.00" vaporized=""/>
    <tripinfo id="veh14422" depart="25222.00" departLane="377853509#0_1" departPos="5.10" departSpeed="0.00" departDelay="0.00" arrival="25484.00" arrivalLane="-27870084#1_0" arrivalPos="6.67" arrivalSpeed="7.78" duration="262.00" routeLength="2236.37" waitingTime="67.00" waitingCount="3" stopTime="0.00" timeLoss="109.18" rerouteNo="1" devices="tripinfo_veh14422 routing_veh14422" vType="DEFAULT_VEHTYPE" speedFactor="1.07" vaporized=""/>
    <tripinfo id="veh14584" depart="25384.00" departLane="-369239271#2_1" departPos="5.10" departSpeed="0.00" departDelay="0.00" arrival="25502.00" arrivalLane="148357182#3_0" arrivalPos="0.20" arrivalSpeed="5.31" duration="118.00" routeLength="505.11" waitingTime="45.00" waitingCount="1" stopTime="0.00" timeLoss="55.72" rerouteNo="1" devices="tripinfo_veh14584 routing_veh14584" vType="DEFAULT_VEHTYPE" speedFactor="0.99" vaporized=""/>
    <tripinfo id="truck3659" depart="25377.00" departLane="24554371#2_1" departPos="5.31" departSpeed="0.00" departDelay="0.00" arrival="25503.00" arrivalLane="253488947_3" arrivalPos="24.82" arrivalSpeed="13.80" duration="126.00" routeLength="1047.47" waitingTime="0.00" waitingCount="0" stopTime="0.00" timeLoss="12.38" rerouteNo="1" devices="tripinfo_truck3659 routing_truck3659" vType="truck_truck" speedFactor="1.01" vaporized=""/>
    <tripinfo id="veh14527" depart="25327.00" departLane="253488996_1" departPos="5.10" departSpeed="0.00" departDelay="0.00" arrival="25507.00" arrivalLane="155860730#1_0" arrivalPos="110.31" arrivalSpeed="12.47" duration="180.00" routeLength="1167.55" waitingTime="51.00" waitingCount="4" stopTime="0.00" timeLoss="87.21" rerouteNo="1" devices="tripinfo_veh14527 routing_veh14527" vType="DEFAULT_VEHTYPE" speedFactor="0.94" vaporized=""/>
    <tripinfo id="veh14581" depart="25381.00" departLane="57846800#1_0" departPos="5.10" departSpeed="0.00" departDelay="0.00" arrival="25512.00" arrivalLane="4492379#0_1" arrivalPos="135.71" arrivalSpeed="5.89" duration="131.00" routeLength="710.51" waitingTime="0.00" waitingCount="0" stopTime="0.00" timeLoss="18.68" rerouteNo="1" devices="tripinfo_veh14581 routing_veh14581" vType="DEFAULT_VEHTYPE" speedFactor="0.77" vaporized=""/>
    <tripinfo id="truck3627" depart="25281.00" departLane="1101405927#2_1" departPos="7.20" departSpeed="0.00" departDelay="0.00" arrival="25513.00" arrivalLane="50283048#0_1" arrivalPos="11.36" arrivalSpeed="14.36" duration="232.00" routeLength="1358.69" waitingTime="60.00" waitingCount="4" stopTime="0.00" timeLoss="117.58" rerouteNo="1" devices="tripinfo_truck3627 routing_truck3627" vType="truck_truck" speedFactor="1.03" vaporized=""/>
    <tripinfo id="veh14402" depart="25202.00" departLane="360785921#1_0" departPos="0.14" departSpeed="0.00" departDelay="0.00" arrival="25514.00" arrivalLane="-369239271#1_1" arrivalPos="58.32" arrivalSpeed="7.85" duration="312.00" routeLength="3002.71" waitingTime="57.00" waitingCount="3" stopTime="0.00" timeLoss="99.42" rerouteNo="1" devices="tripinfo_veh14402 routing_veh14402" vType="DEFAULT_VEHTYPE" speedFactor="1.08" vaporized=""/>
    <tripinfo id="veh14443" depart="25243.00" departLane="-922053733#0_1" departPos="5.10" departSpeed="0.00" departDelay="0.00" arrival="25516.00" arrivalLane="8067182#1_0" arrivalPos="5.74" arrivalSpeed="11.35" duration="273.00" routeLength="1747.36" waitingTime="87.00" waitingCount="6" stopTime="0.00" timeLoss="137.90" rerouteNo="1" devices="tripinfo_veh14443 routing_veh14443" vType="DEFAULT_VEHTYPE" speedFactor="0.98" vaporized=""/>
    <tripinfo id="veh14539" depart="25339.00" departLane="171935245#1_0" departPos="5.10" departSpeed="0.00" departDelay="0.00" arrival="25522.00" arrivalLane="178935171#1_2" arrivalPos="60.03" arrivalSpeed="12.09" duration="183.00" routeLength="1546.93" waitingTime="20.00" waitingCount="3" stopTime="0.00" timeLoss="51.51" rerouteNo="1" devices="tripinfo_veh14539 routing_veh14539" vType="DEFAULT_VEHTYPE" speedFactor="0.88" vaporized=""/>
    <tripinfo id="veh14619" depart="25419.00" departLane="-24608196#2_1" departPos="5.10" departSpeed="0.00" departDelay="0.00" arrival="25522.00" arrivalLane="315426060#2_0" arrivalPos="11.87" arrivalSpeed="12.16" duration="103.00" routeLength="984.07" waitingTime="0.00" waitingCount="0" stopTime="0.00" timeLoss="11.15" rerouteNo="1" devices="tripinfo_veh14619 routing_veh14619" vType="DEFAULT_VEHTYPE" speedFactor="0.90" vaporized=""/>
    <tripinfo id="veh14585" depart="25385.00" departLane="24532277#0_0" departPos="5.10" departSpeed="0.00" departDelay="0.00" arrival="25523.00" arrivalLane="364071761#1_1" arrivalPos="33.79" arrivalSpeed="8.48" duration="138.00" routeLength="1228.92" waitingTime="0.00" waitingCount="0" stopTime="0.00" timeLoss="26.33" rerouteNo="1" devices="tripinfo_veh14585 routing_veh14585" vType="DEFAULT_VEHTYPE" speedFactor="1.05" vaporized=""/>
    <tripinfo id="veh14701" depart="25501.00" departLane="190431168#3_1" departPos="5.10" departSpeed="0.00" departDelay="0.00" arrival="25527.00" arrivalLane="360248187#5_1" arrivalPos="7.82" arrivalSpeed="8.26" duration="26.00" routeLength="180.77" waitingTime="0.00" waitingCount="0" stopTime="0.00" timeLoss="4.48" rerouteNo="1" devices="tripinfo_veh14701 routing_veh14701" vType="DEFAULT_VEHTYPE" speedFactor="1.01" vaporized=""/>
    <tripinfo id="veh14625" depart="25439.00" departLane="-1064398602#0_1" departPos="5.10" departSpeed="0.00" departDelay="14.00" arrival="25529.00" arrivalLane="31045126#1_1" arrivalPos="85.93" arrivalSpeed="7.03" duration="90.00" routeLength="529.35" waitingTime="16.00" waitingCount="1" stopTime="0.00" timeLoss="31.20" rerouteNo="1" devices="tripinfo_veh14625 routing_veh14625" vType="DEFAULT_VEHTYPE" speedFactor="0.92" vaporized=""/>
    <tripinfo id="veh14688" depart="25488.00" departLane="195137102#1_1" departPos="5.10" departSpeed="0.00" departDelay="0.00" arrival="25529.00" arrivalLane="150661833#0_1" arrivalPos="58.58" arrivalSpeed="6.80" duration="41.00" routeLength="289.13" waitingTime="0.00" waitingCount="0" stopTime="0.00" timeLoss="4.33" rerouteNo="1" devices="tripinfo_veh14688 routing_veh14688" vType="DEFAULT_VEHTYPE" speedFactor="0.96" vaporized=""/>
    <tripinfo id="veh14551" depart="25351.00" departLane="-502060955#0_1" departPos="5.10" departSpeed="0.00" departDelay="0.00" arrival="25530.00" arrivalLane="150857994#1_1" arrivalPos="39.95" arrivalSpeed="6.24" duration="179.00" routeLength="875.88" waitingTime="51.00" waitingCount="2" stopTime="0.00" timeLoss="74.24" rerouteNo="1" devices="tripinfo_veh14551 routing_veh14551" vType="DEFAULT_VEHTYPE" speedFactor="0.90" vaporized=""/>
    <tripinfo id="truck3624" depart="25272.00" departLane="251158322#1_2" departPos="7.20" departSpeed="0.00" departDelay="0.00" arrival="25531.00" arrivalLane="14104725#2_0" arrivalPos="2.22" arrivalSpeed="7.22" duration="259.00" routeLength="794.41" waitingTime="136.00" waitingCount="5" stopTime="0.00" timeLoss="179.87" rerouteNo="1" devices="tripinfo_truck3624 routing_truck3624" vType="truck_truck" speedFactor="0.93" vaporized=""/>
    <tripinfo id="veh14427" depart="25227.00" departLane="164152502#18.7_0" departPos="5.10" departSpeed="0.00" departDelay="0.00" arrival="25532.00" arrivalLane="23566451#1_0" arrivalPos="0.20" arrivalSpeed="9.07" duration="305.00" routeLength="1045.25" waitingTime="178.00" waitingCount="6" stopTime="0.00" timeLoss="226.66" rerouteNo="1" devices="tripinfo_veh14427 routing_veh14427" vType="DEFAULT_VEHTYPE" speedFactor="1.11" vaporized=""/>
    <tripinfo id="veh14643" depart="25443.00" departLane="-169689362#2_1" departPos="5.10" departSpeed="0.00" departDelay="0.00" arrival="25537.00" arrivalLane="235391021_0" arrivalPos="19.10" arrivalSpeed="13.87" duration="94.00" routeLength="766.78" waitingTime="0.00" waitingCount="0" stopTime="0.00" timeLoss="12.76" rerouteNo="1" devices="tripinfo_veh14643 routing_veh14643" vType="DEFAULT_VEHTYPE" speedFactor="1.01" vaporized=""/>
    <tripinfo id="truck3608" depart="25224.00" departLane="195137102#1_1" departPos="7.20" departSpeed="0.00" departDelay="0.00" arrival="25540.00" arrivalLane="500261498_1" arrivalPos="14.75" arrivalSpeed="13.95" duration="316.00" routeLength="2052.86" waitingTime="70.00" waitingCount="5" stopTime="0.00" timeLoss="146.29" rerouteNo="1" devices="tripinfo_truck3608 routing_truck3608" vType="truck_truck" speedFactor="1.04" vaporized=""/>
    <tripinfo id="veh14559" depart="25359.00" departLane="229619682#1_2" departPos="5.10" departSpeed="0.00" departDelay="0.00" arrival="25546.00" arrivalLane="-205422863#0_1" arrivalPos="32.17" arrivalSpeed="7.70" duration="187.00" routeLength="704.45" waitingTime="94.00" waitingCount="3" stopTime="0.00" timeLoss="115.22" rerouteNo="1" devices="tripinfo_veh14559 routing_veh14559" vType="DEFAULT_VEHTYPE" speedFactor="0.94" vaporized=""/>
    <tripinfo id="veh14578" depart="25378.00" departLane="184156814#0_0" departPos="5.10" departSpeed="0.00" departDelay="0.00" arrival="25546.00" arrivalLane="19354458#2_0" arrivalPos="0.20" arrivalSpeed="8.16" duration="168.00" routeLength="1447.52" waitingTime="3.00" waitingCount="1" stopTime="0.00" timeLoss="32.12" rerouteNo="1" devices="tripinfo_veh14578 routing_veh14578" vType="DEFAULT_VEHTYPE" speedFactor="1.03" vaporized=""/>
    <tripinfo id="veh14501" depart="25301.00" departLane="-270655645#0_0" departPos="5.10" departSpeed="0.00" departDelay="0.00" arrival="25547.00" arrivalLane="-56185657#0_0" arrivalPos="60.22" arrivalSpeed="12.21" duration="246.00" routeLength="2388.27" waitingTime="22.00" waitingCount="1" stopTime="0.00" timeLoss="60.96" rerouteNo="1" devices="tripinfo_veh14501 routing_veh14501" vType="DEFAULT_VEHTYPE" speedFactor="0.95" vaporized=""/>
    <tripinfo id="veh14598" depart="25398.00" departLane="189032455_0" departPos="5.10" departSpeed="0.00" departDelay="0.00" arrival="25549.00" arrivalLane="7980452#1_1" arrivalPos="11.62" arrivalSpeed="9.36" duration="151.00" routeLength="912.43" waitingTime="53.00" waitingCount="3" stopTime="0.00" timeLoss="90.81" rerouteNo="1" devices="tripinfo_veh14598 routing_veh14598" vType="DEFAULT_VEHTYPE" speedFactor="1.25" vaporized=""/>
    <tripinfo id="veh14593" depart="25393.00" departLane="270684568#9_1" departPos="5.10" departSpeed="0.00" departDelay="0.00" arrival="25551.00" arrivalLane="-150857993#1_1" arrivalPos="108.83" arrivalSpeed="8.84" duration="158.00" routeLength="1254.65" waitingTime="24.00" waitingCount="1" stopTime="0.00" timeLoss="67.89" rerouteNo="1" devices="tripinfo_veh14593 routing_veh14593" vType="DEFAULT_VEHTYPE" speedFactor="1.20" vaporized=""/>
    <tripinfo id="truck3600" depart="25200.00" departLane="85287424_0" departPos="7.20" departSpeed="0.00" departDelay="0.00" arrival="25552.00" arrivalLane="150393267#0_1" arrivalPos="401.48" arrivalSpeed="14.34" duration="352.00" routeLength="3443.34" waitingTime="55.00" waitingCount="3" stopTime="0.00" timeLoss="109.94" rerouteNo="1" devices="tripinfo_truck3600 routing_truck3600" vType="truck_truck" speedFactor="1.03" vaporized=""/>
    <tripinfo id="truck3702" depart="25506.00" departLane="269017591#0_0" departPos="7.20" departSpeed="0.00" departDelay="0.00" arrival="25553.00" arrivalLane="27287268_1" arrivalPos="105.06" arrivalSpeed="7.56" duration="47.00" routeLength="338.91" waitingTime="0.00" waitingCount="0" stopTime="0.00" timeLoss="9.94" rerouteNo="1" devices="tripinfo_truck3702 routing_truck3702" vType="truck_truck" speedFactor="0.96" vaporized=""/>
    <tripinfo id="veh14588" depart="25388.00" departLane="-240348395#6_1" departPos="4.08" departSpeed="0.00" departDelay="0.00" arrival="25555.00" arrivalLane="171935245#0_0" arrivalPos="59.36" arrivalSpeed="13.39" duration="167.00" routeLength="1613.35" waitingTime="7.00" waitingCount="1" stopTime="0.00" timeLoss="35.64" rerouteNo="1" devices="tripinfo_veh14588 routing_veh14588" vType="DEFAULT_VEHTYPE" speedFactor="0.98" vaporized=""/>
    <tripinfo id="truck3670" depart="25410.00" departLane="-245941530#3_0" departPos="7.20" departSpeed="0.00" departDelay="0.00" arrival="25559.00" arrivalLane="53175159#6_1" arrivalPos="8.18" arrivalSpeed="7.97" duration="149.00" routeLength="855.70" waitingTime="34.00" waitingCount="1" stopTime="0.00" timeLoss="52.86" rerouteNo="1" devices="tripinfo_truck3670 routing_truck3670" vType="truck_truck" speedFactor="1.00" vaporized=""/>
    <tripinfo id="truck3620" depart="25260.00" departLane="638123367#1_1" departPos="7.20" departSpeed="0.00" departDelay="0.00" arrival="25568.00" arrivalLane="187061084_2" arrivalPos="49.92" arrivalSpeed="13.57" duration="308.00" routeLength="1932.74" waitingTime="96.00" waitingCount="2" stopTime="0.00" timeLoss="156.82" rerouteNo="1" devices="tripinfo_truck3620 routing_truck3620" vType="truck_truck" speedFactor="0.98" vaporized=""/>
    <tripinfo id="veh14470" depart="25270.00" departLane="358953096_2" departPos="5.10" departSpeed="0.00" departDelay="0.00" arrival="25569.00" arrivalLane="-402016793_0" arrivalPos="89.59" arrivalSpeed="6.00" duration="299.00" routeLength="1675.37" waitingTime="81.00" waitingCount="3" stopTime="0.00" timeLoss="125.11" rerouteNo="1" devices="tripinfo_veh14470 routing_veh14470" vType="DEFAULT_VEHTYPE" speedFactor="1.05" vaporized=""/>
    <tripinfo id="truck3611" depart="25233.00" departLane="35834155#0_0" departPos="1.48" departSpeed="0.00" departDelay="0.00" arrival="25571.00" arrivalLane="227205268#1_0" arrivalPos="337.41" arrivalSpeed="13.38" duration="338.00" routeLength="3132.10" waitingTime="52.00" waitingCount="3" stopTime="0.00" timeLoss="104.08" rerouteNo="1" devices="tripinfo_truck3611 routing_truck3611" vType="truck_truck" speedFactor="0.97" vaporized=""/>
    <tripinfo id="veh14502" depart="25302.00" departLane="-149942614#1_1" departPos="0.20" departSpeed="0.00" departDelay="0.00" arrival="25574.00" arrivalLane="1055823708#0_1" arrivalPos="10.07" arrivalSpeed="7.23" duration="272.00" routeLength="1453.60" waitingTime="56.00" waitingCount="1" stopTime="0.00" timeLoss="87.06" rerouteNo="1" devices="tripinfo_veh14502 routing_veh14502" vType="DEFAULT_VEHTYPE" speedFactor="0.88" vaporized=""/>