<?xml version="1.0" encoding="UTF-8"?>

<!-- generated on Wed Nov 29 22:13:46 2023 by Eclipse SUMO sumo Version 1.8.0
<configuration xmlns:xsi="http://www.w3.org/2001/XMLSchema-instance" xsi:noNamespaceSchemaLocation="http://sumo.dlr.de/xsd/sumoConfiguration.xsd">

    <input>
        <net-file value="/home/inestp01/rl_traffic_signal_optimization/models/20230718_sumo_ma/osm.net.xml,/home/inestp01/rl_traffic_signal_optimization/models/20230718_sumo_ma/pt/gtfs_pt_stops.add.xml,/home/inestp01/rl_traffic_signal_optimization/models/20230718_sumo_ma/pt/stops.add.xml,/home/inestp01/rl_traffic_signal_optimization/models/20230718_sumo_ma/pt/vtypes.xml,/home/inestp01/rl_traffic_signal_optimization/models/20230718_sumo_ma/osm.poly.xml"/>
        <route-files value="/home/inestp01/rl_traffic_signal_optimization/models/20230718_sumo_ma/veh_routes.xml,/home/inestp01/rl_traffic_signal_optimization/models/20230718_sumo_ma/pt/gtfs_pt_vehicles.xml,/home/inestp01/rl_traffic_signal_optimization/models/20230718_sumo_ma/truck_routes.xml,/home/inestp01/rl_traffic_signal_optimization/models/20230718_sumo_ma/bicycle_routes.xml,/home/inestp01/rl_traffic_signal_optimization/models/20230718_sumo_ma/motorcycle_routes.xml"/>
    </input>

    <output>
        <tripinfo-output value="{name}-tripinfo.xml"/>
    </output>

    <time>
        <begin value=" 25200"/>
    </time>

    <processing>
        <time-to-teleport value="300"/>
        <waiting-time-memory value="1000"/>
        <max-depart-delay value="-1"/>
    </processing>

    <traci_server>
        <remote-port value="41363"/>
    </traci_server>

    <random_number>
        <random value="true"/>
    </random_number>

</configuration>
-->

<tripinfos xmlns:xsi="http://www.w3.org/2001/XMLSchema-instance" xsi:noNamespaceSchemaLocation="http://sumo.dlr.de/xsd/tripinfo_file.xsd">
    <tripinfo id="veh14410" depart="25210.00" departLane="-334457597#2_1" departPos="5.10" departSpeed="0.00" departDelay="0.00" arrival="25297.00" arrivalLane="-532149775#2_0" arrivalPos="77.75" arrivalSpeed="11.99" duration="87.00" routeLength="567.45" waitingTime="7.00" waitingCount="1" stopTime="0.00" timeLoss="21.42" rerouteNo="1" devices="tripinfo_veh14410 routing_veh14410" vType="DEFAULT_VEHTYPE" speedFactor="0.88" vaporized=""/>
    <tripinfo id="veh14439" depart="25239.00" departLane="121805100_1" departPos="0.20" departSpeed="0.00" departDelay="0.00" arrival="25297.00" arrivalLane="150393267#7_0" arrivalPos="74.90" arrivalSpeed="14.17" duration="58.00" routeLength="617.62" waitingTime="0.00" waitingCount="0" stopTime="0.00" timeLoss="13.03" rerouteNo="1" devices="tripinfo_veh14439 routing_veh14439" vType="DEFAULT_VEHTYPE" speedFactor="1.08" vaporized=""/>
    <tripinfo id="veh14406" depart="25206.00" departLane="-205103380#1_1" departPos="0.75" departSpeed="0.00" departDelay="0.00" arrival="25306.00" arrivalLane="-39649662#3_1" arrivalPos="39.11" arrivalSpeed="7.47" duration="100.00" routeLength="733.94" waitingTime="2.00" waitingCount="1" stopTime="0.00" timeLoss="22.20" rerouteNo="1" devices="tripinfo_veh14406 routing_veh14406" vType="DEFAULT_VEHTYPE" speedFactor="0.98" vaporized=""/>
    <tripinfo id="bike3029" depart="25251.00" departLane="-24549661#0_0" departPos="1.70" departSpeed="0.00" departDelay="0.85" arrival="25316.00" arrivalLane="-24608196#4_1" arrivalPos="59.23" arrivalSpeed="5.53" duration="65.00" routeLength="327.00" waitingTime="0.00" waitingCount="0" stopTime="0.00" timeLoss="5.89" rerouteNo="1" devices="tripinfo_bike3029 routing_bike3029" vType="bike_bicycle" speedFactor="1.03" vaporized=""/>
    <tripinfo id="veh14436" depart="25236.00" departLane="27247873_0" departPos="5.10" departSpeed="0.00" departDelay="0.00" arrival="25360.00" arrivalLane="500527046#1_1" arrivalPos="14.13" arrivalSpeed="13.86" duration="124.00" routeLength="1122.79" waitingTime="15.00" waitingCount="2" stopTime="0.00" timeLoss="39.99" rerouteNo="1" devices="tripinfo_veh14436 routing_veh14436" vType="DEFAULT_VEHTYPE" speedFactor="1.04" vaporized=""/>
    <tripinfo id="veh14420" depart="25220.00" departLane="226872065#5_1" departPos="5.10" departSpeed="0.00" departDelay="0.00" arrival="25364.00" arrivalLane="-205759801#1_1" arrivalPos="7.84" arrivalSpeed="6.26" duration="144.00" routeLength="1111.70" waitingTime="0.00" waitingCount="0" stopTime="0.00" timeLoss="16.53" rerouteNo="1" devices="tripinfo_veh14420 routing_veh14420" vType="DEFAULT_VEHTYPE" speedFactor="1.06" vaporized=""/>
    <tripinfo id="veh14423" depart="25223.00" departLane="-240348395#5_1" departPos="5.10" departSpeed="0.00" departDelay="0.00" arrival="25365.00" arrivalLane="240348395#2_1" arrivalPos="21.92" arrivalSpeed="13.36" duration="142.00" routeLength="531.21" waitingTime="76.00" waitingCount="2" stopTime="0.00" timeLoss="92.06" rerouteNo="1" devices="tripinfo_veh14423 routing_veh14423" vType="DEFAULT_VEHTYPE" speedFactor="1.04" vaporized=""/>
    <tripinfo id="veh14475" depart="25278.00" departLane="53175060#2_2" departPos="5.10" departSpeed="0.00" departDelay="3.00" arrival="25365.00" arrivalLane="108404027#2_1" arrivalPos="134.79" arrivalSpeed="8.23" duration="87.00" routeLength="681.00" waitingTime="12.00" waitingCount="1" stopTime="0.00" timeLoss="26.39" rerouteNo="1" devices="tripinfo_veh14475 routing_veh14475" vType="DEFAULT_VEHTYPE" speedFactor="1.01" vaporized=""/>
    <tripinfo id="truck3634" depart="25302.00" departLane="238870176#0_1" departPos="7.20" departSpeed="0.00" departDelay="0.00" arrival="25380.00" arrivalLane="-190438079#0_1" arrivalPos="61.53" arrivalSpeed="8.03" duration="78.00" routeLength="515.97" waitingTime="1.00" waitingCount="1" stopTime="0.00" timeLoss="27.09" rerouteNo="1" devices="tripinfo_truck3634 routing_truck3634" vType="truck_truck" speedFactor="1.03" vaporized=""/>
    <tripinfo id="veh14421" depart="25221.00" departLane="155860730#2_0" departPos="5.10" departSpeed="0.00" departDelay="0.00" arrival="25393.00" arrivalLane="172333241#0_0" arrivalPos="42.17" arrivalSpeed="13.36" duration="172.00" routeLength="2158.59" waitingTime="2.00" waitingCount="1" stopTime="0.00" timeLoss="20.69" rerouteNo="1" devices="tripinfo_veh14421 routing_veh14421" vType="DEFAULT_VEHTYPE" speedFactor="1.03" vaporized=""/>
    <tripinfo id="veh14462" depart="25262.00" departLane="240348395#4_1" departPos="5.10" departSpeed="0.00" departDelay="0.00" arrival="25396.00" arrivalLane="155860730#1_0" arrivalPos="110.31" arrivalSpeed="11.94" duration="134.00" routeLength="1064.26" waitingTime="26.00" waitingCount="2" stopTime="0.00" timeLoss="49.12" rerouteNo="1" devices="tripinfo_veh14462 routing_veh14462" vType="DEFAULT_VEHTYPE" speedFactor="0.92" vaporized=""/>
    <tripinfo id="truck3604" depart="25212.00" departLane="97301292#1_1" departPos="7.20" departSpeed="0.00" departDelay="0.00" arrival="25396.00" arrivalLane="150554190#1_1" arrivalPos="33.32" arrivalSpeed="7.80" duration="184.00" routeLength="1011.09" waitingTime="31.00" waitingCount="3" stopTime="0.00" timeLoss="65.04" rerouteNo="1" devices="tripinfo_truck3604 routing_truck3604" vType="truck_truck" speedFactor="0.95" vaporized=""/>
    <tripinfo id="veh14434" depart="25234.00" departLane="-205103380#2_1" departPos="5.10" departSpeed="0.00" departDelay="0.00" arrival="25401.00" arrivalLane="205759812_1" arrivalPos="214.78" arrivalSpeed="6.84" duration="167.00" routeLength="723.66" waitingTime="51.00" waitingCount="3" stopTime="0.00" timeLoss="73.19" rerouteNo="1" devices="tripinfo_veh14434 routing_veh14434" vType="DEFAULT_VEHTYPE" speedFactor="0.94" vaporized=""/>
    <tripinfo id="truck3650" depart="25350.00" departLane="175558914#6_1" departPos="7.20" departSpeed="0.00" departDelay="0.00" arrival="25411.00" arrivalLane="189764716#1_1" arrivalPos="59.09" arrivalSpeed="14.73" duration="61.00" routeLength="469.33" waitingTime="2.00" waitingCount="2" stopTime="0.00" timeLoss="28.91" rerouteNo="1" devices="tripinfo_truck3650 routing_truck3650" vType="truck_truck" speedFactor="1.10" vaporized=""/>
    <tripinfo id="moto203" depart="25308.00" departLane="-214586680_1" departPos="2.30" departSpeed="0.00" departDelay="0.00" arrival="25413.00" arrivalLane="218025853#1_1" arrivalPos="2.99" arrivalSpeed="7.56" duration="105.00" routeLength="577.30" waitingTime="10.00" waitingCount="2" stopTime="0.00" timeLoss="31.77" rerouteNo="1" devices="tripinfo_moto203 routing_moto203" vType="moto_motorcycle" speedFactor="0.97" vaporized=""/>
    <tripinfo id="veh14469" depart="25269.00" departLane="429104325#1_2" departPos="5.10" departSpeed="0.00" departDelay="0.00" arrival="25425.00" arrivalLane="-253488999#0_1" arrivalPos="28.04" arrivalSpeed="13.19" duration="156.00" routeLength="1304.75" waitingTime="23.00" waitingCount="2" stopTime="0.00" timeLoss="50.12" rerouteNo="1" devices="tripinfo_veh14469 routing_veh14469" vType="DEFAULT_VEHTYPE" speedFactor="1.03" vaporized=""/>
    <tripinfo id="veh14486" depart="25286.00" departLane="208424711#0_1" departPos="5.10" departSpeed="0.00" departDelay="0.00" arrival="25428.00" arrivalLane="-266188220#1_1" arrivalPos="2.82" arrivalSpeed="7.23" duration="142.00" routeLength="985.42" waitingTime="2.00" waitingCount="1" stopTime="0.00" timeLoss="27.22" rerouteNo="1" devices="tripinfo_veh14486 routing_veh14486" vType="DEFAULT_VEHTYPE" speedFactor="0.99" vaporized=""/>
    <tripinfo id="truck3622" depart="25266.00" departLane="1101405928#0_1" departPos="2.37" departSpeed="0.00" departDelay="0.00" arrival="25429.00" arrivalLane="532149775#0_0" arrivalPos="44.99" arrivalSpeed="14.95" duration="163.00" routeLength="1357.53" waitingTime="21.00" waitingCount="2" stopTime="0.00" timeLoss="53.93" rerouteNo="1" devices="tripinfo_truck3622 routing_truck3622" vType="truck_truck" speedFactor="1.08" vaporized=""/>
    <tripinfo id="veh14413" depart="25213.00" departLane="-30158429#0_1" departPos="5.10" departSpeed="0.00" departDelay="0.00" arrival="25430.00" arrivalLane="-215925855_1" arrivalPos="31.82" arrivalSpeed="13.27" duration="217.00" routeLength="1668.54" waitingTime="0.00" waitingCount="0" stopTime="0.00" timeLoss="24.42" rerouteNo="1" devices="tripinfo_veh14413 routing_veh14413" vType="DEFAULT_VEHTYPE" speedFactor="1.01" vaporized=""/>
    <tripinfo id="veh14513" depart="25313.00" departLane="-24534083#0_1" departPos="2.72" departSpeed="0.00" departDelay="0.00" arrival="25431.00" arrivalLane="150837582#1_2" arrivalPos="140.94" arrivalSpeed="15.28" duration="118.00" routeLength="729.83" waitingTime="28.00" waitingCount="1" stopTime="0.00" timeLoss="44.60" rerouteNo="1" devices="tripinfo_veh14513 routing_veh14513" vType="DEFAULT_VEHTYPE" speedFactor="1.13" vaporized=""/>
    <tripinfo id="veh14492" depart="25292.00" departLane="-38152916#1_0" departPos="5.10" departSpeed="0.00" departDelay="0.00" arrival="25433.00" arrivalLane="35952188_1" arrivalPos="83.02" arrivalSpeed="9.00" duration="141.00" routeLength="825.24" waitingTime="44.00" waitingCount="1" stopTime="0.00" timeLoss="58.10" rerouteNo="1" devices="tripinfo_veh14492 routing_veh14492" vType="DEFAULT_VEHTYPE" speedFactor="1.08" vaporized=""/>
    <tripinfo id="truck3603" depart="25209.00" departLane="189765377_1" departPos="7.20" departSpeed="0.00" departDelay="0.00" arrival="25439.00" arrivalLane="-77668862#0_0" arrivalPos="15.57" arrivalSpeed="8.81" duration="230.00" routeLength="2108.76" waitingTime="42.00" waitingCount="3" stopTime="0.00" timeLoss="87.67" rerouteNo="1" devices="tripinfo_truck3603 routing_truck3603" vType="truck_truck" speedFactor="1.10" vaporized=""/>
    <tripinfo id="truck3610" depart="25230.00" departLane="46961543_1" departPos="7.20" departSpeed="0.00" departDelay="0.00" arrival="25441.00" arrivalLane="28646388#0_1" arrivalPos="16.53" arrivalSpeed="7.25" duration="211.00" routeLength="1366.04" waitingTime="59.00" waitingCount="1" stopTime="0.00" timeLoss="80.41" rerouteNo="1" devices="tripinfo_truck3610 routing_truck3610" vType="truck_truck" speedFactor="0.94" vaporized=""/>
    <tripinfo id="moto201" depart="25236.00" departLane="192428988#0_1" departPos="2.30" departSpeed="0.00" departDelay="0.00" arrival="25444.00" arrivalLane="500261497_3" arrivalPos="72.37" arrivalSpeed="9.64" duration="208.00" routeLength="1298.70" waitingTime="58.00" waitingCount="4" stopTime="0.00" timeLoss="96.21" rerouteNo="1" devices="tripinfo_moto201 routing_moto201" vType="moto_motorcycle" speedFactor="0.91" vaporized=""/>
    <tripinfo id="veh14464" depart="25264.00" departLane="165720108#3_0" departPos="5.10" departSpeed="0.00" departDelay="0.00" arrival="25445.00" arrivalLane="190438083#1_1" arrivalPos="0.20" arrivalSpeed="11.93" duration="181.00" routeLength="1286.12" waitingTime="33.00" waitingCount="3" stopTime="0.00" timeLoss="74.23" rerouteNo="1" devices="tripinfo_veh14464 routing_veh14464" vType="DEFAULT_VEHTYPE" speedFactor="0.94" vaporized=""/>
    <tripinfo id="veh14414" depart="25214.00" departLane="27315344#1_0" departPos="5.10" departSpeed="0.00" departDelay="0.00" arrival="25446.00" arrivalLane="-366073485#1_1" arrivalPos="27.62" arrivalSpeed="6.17" duration="232.00" routeLength="1484.36" waitingTime="60.00" waitingCount="3" stopTime="0.00" timeLoss="97.34" rerouteNo="1" devices="tripinfo_veh14414 routing_veh14414" vType="DEFAULT_VEHTYPE" speedFactor="0.86" vaporized=""/>
    <tripinfo id="veh14522" depart="25322.00" departLane="53175159#0_1" departPos="1.00" departSpeed="0.00" departDelay="0.00" arrival="25447.00" arrivalLane="42760868_3" arrivalPos="13.78" arrivalSpeed="11.77" duration="125.00" routeLength="990.08" waitingTime="13.00" waitingCount="2" stopTime="0.00" timeLoss="43.46" rerouteNo="1" devices="tripinfo_veh14522 routing_veh14522" vType="DEFAULT_VEHTYPE" speedFactor="1.00" vaporized=""/>
    <tripinfo id="bike3022" depart="25226.00" departLane="149899941_0" departPos="1.70" departSpeed="0.00" departDelay="0.93" arrival="25447.00" arrivalLane="150851814#5_1" arrivalPos="113.27" arrivalSpeed="5.34" duration="221.00" routeLength="1045.41" waitingTime="12.00" waitingCount="1" stopTime="0.00" timeLoss="31.51" rerouteNo="1" devices="tripinfo_bike3022 routing_bike3022" vType="bike_bicycle" speedFactor="0.92" vaporized=""/>
    <tripinfo id="truck3615" depart="25245.00" departLane="269040904_1" departPos="7.20" departSpeed="0.00" departDelay="0.00" arrival="25448.00" arrivalLane="150694624#3_1" arrivalPos="101.37" arrivalSpeed="7.81" duration="203.00" routeLength="1230.46" waitingTime="56.00" waitingCount="2" stopTime="0.00" timeLoss="85.25" rerouteNo="1" devices="tripinfo_truck3615 routing_truck3615" vType="truck_truck" speedFactor="1.00" vaporized=""/>
