<?xml version="1.0" encoding="UTF-8"?>

<!-- generated on Wed Nov 29 22:13:46 2023 by Eclipse SUMO sumo Version 1.8.0
<configuration xmlns:xsi="http://www.w3.org/2001/XMLSchema-instance" xsi:noNamespaceSchemaLocation="http://sumo.dlr.de/xsd/sumoConfiguration.xsd">

    <input>
        <net-file value="/home/inestp01/rl_traffic_signal_optimization/models/20230718_sumo_ma/osm.net.xml,/home/inestp01/rl_traffic_signal_optimization/models/20230718_sumo_ma/pt/gtfs_pt_stops.add.xml,/home/inestp01/rl_traffic_signal_optimization/models/20230718_sumo_ma/pt/stops.add.xml,/home/inestp01/rl_traffic_signal_optimization/models/20230718_sumo_ma/pt/vtypes.xml,/home/inestp01/rl_traffic_signal_optimization/models/20230718_sumo_ma/osm.poly.xml"/>
        <route-files value="/home/inestp01/rl_traffic_signal_optimization/models/20230718_sumo_ma/veh_routes.xml,/home/inestp01/rl_traffic_signal_optimization/models/20230718_sumo_ma/pt/gtfs_pt_vehicles.xml,/home/inestp01/rl_traffic_signal_optimization/models/20230718_sumo_ma/truck_routes.xml,/home/inestp01/rl_traffic_signal_optimization/models/20230718_sumo_ma/bicycle_routes.xml,/home/inestp01/rl_traffic_signal_optimization/models/20230718_sumo_ma/motorcycle_routes.xml"/>
    </input>

    <output>
        <tripinfo-output value="{name}-tripinfo.xml"/>
    </output>

    <time>
        <begin value=" 25200"/>
    </time>

    <processing>
        <time-to-teleport value="300"/>
        <waiting-time-memory value="1000"/>
        <max-depart-delay value="-1"/>
    </processing>

    <traci_server>
        <remote-port value="41363"/>
    </traci_server>

    <random_number>
        <random value="true"/>
    </random_number>

</configuration>
-->

<tripinfos xmlns:xsi="http://www.w3.org/2001/XMLSchema-instance" xsi:noNamespaceSchemaLocation="http://sumo.dlr.de/xsd/tripinfo_file.xsd">
    <tripinfo id="veh14410" depart="25210.00" departLane="-334457597#2_1" departPos="5.10" departSpeed="0.00" departDelay="0.00" arrival="25297.00" arrivalLane="-532149775#2_0" arrivalPos="77.75" arrivalSpeed="11.99" duration="87.00" routeLength="567.45" waitingTime="7.00" waitingCount="1" stopTime="0.00" timeLoss="21.42" rerouteNo="1" devices="tripinfo_veh14410 routing_veh14410" vType="DEFAULT_VEHTYPE" speedFactor="0.88" vaporized=""/>
    <tripinfo id="veh14439" depart="25239.00" departLane="121805100_1" departPos="0.20" departSpeed="0.00" departDelay="0.00" arrival="25297.00" arrivalLane="150393267#7_0" arrivalPos="74.90" arrivalSpeed="14.17" duration="58.00" routeLength="617.62" waitingTime="0.00" waitingCount="0" stopTime="0.00" timeLoss="13.03" rerouteNo="1" devices="tripinfo_veh14439 routing_veh14439" vType="DEFAULT_VEHTYPE" speedFactor="1.08" vaporized=""/>
    <tripinfo id="veh14406" depart="25206.00" departLane="-205103380#1_1" departPos="0.75" departSpeed="0.00" departDelay="0.00" arrival="25306.00" arrivalLane="-39649662#3_1" arrivalPos="39.11" arrivalSpeed="7.47" duration="100.00" routeLength="733.94" waitingTime="2.00" waitingCount="1" stopTime="0.00" timeLoss="22.20" rerouteNo="1" devices="tripinfo_veh14406 routing_veh14406" vType="DEFAULT_VEHTYPE" speedFactor="0.98" vaporized=""/>
